[Molden Format]
[Title]
[Atoms] AU
C      1     6  0.25050776425806E+01  0.59546404022465E+01  0.39270776540962E+01
O      2     8  0.14217354498582E+01  0.35959409452790E+01  0.31946953972383E+01
C      3     6  0.19104942147300E+01  0.29251070683000E+01  0.74481665475790E+00
C      4     6  0.70724889940045E+00  0.30917809124915E+00  0.17136036498058E+00
N      5     7 -0.89478532000778E-01  0.91235977296675E-01 -0.25493161311580E+01
C      6     6 -0.12705573598886E+01 -0.23914862052297E+01 -0.31464506892768E+01
C      7     6 -0.38024502161775E+01 -0.29519789737921E+01 -0.17972807226040E+01
C      8     6 -0.53520823301500E+01 -0.59384643466197E+00 -0.16881490389072E+01
C      9     6 -0.44449948930710E+01  0.17662136251152E+01 -0.23365707640482E+01
C     10     6 -0.18165181345526E+01  0.21571412685155E+01 -0.33415271171213E+01
C     11     6 -0.63306581065235E+01  0.36610420102722E+01 -0.19613089502211E+01
C     12     6 -0.85580215978298E+01  0.26630398493376E+01 -0.10472295264809E+01
S     13    16 -0.83827117052488E+01 -0.54310728821591E+00 -0.64277144402840E+00
C     14     6  0.26406465947609E+01 -0.17077454988195E+01  0.92052338982511E+00
C     15     6  0.48017940826605E+01 -0.20665289008399E+01 -0.60155651725042E+00
C     16     6  0.66386456703141E+01 -0.38503547734366E+01  0.28742734355477E-01
C     17     6  0.63648810466403E+01 -0.53022124577213E+01  0.22017954968403E+01
C     18     6  0.42583466437422E+01 -0.49610979949660E+01  0.37467221927625E+01
C     19     6  0.24111582541870E+01 -0.31725856015803E+01  0.31223566811879E+01
Cl    20    17 -0.10845138229197E+00 -0.28707018531722E+01  0.51763944923440E+01
O     21     8  0.31559938062061E+01  0.42074185246837E+01 -0.73056811977826E+00
H     22     1  0.17365638222200E+01  0.74928018786425E+01  0.27776895333183E+01
H     23     1  0.20063411237708E+01  0.63024067009604E+01  0.59019737351533E+01
H     24     1  0.45665798719290E+01  0.58833221383033E+01  0.37760696394778E+01
H     25     1 -0.99289990039807E+00  0.18296328338575E+00  0.13397591305722E+01
H     26     1  0.48017940826605E-01 -0.39498299566367E+01 -0.27980040891580E+01
H     27     1 -0.15963839382956E+01 -0.24435481599630E+01 -0.51977672948135E+01
H     28     1 -0.34383566837469E+01 -0.36244569124995E+01  0.12706518461948E+00
H     29     1 -0.48084837131417E+01 -0.44500593590849E+01 -0.28129896173262E+01
H     30     1 -0.11127274339603E+01  0.40275165976198E+01 -0.28126683638851E+01
H     31     1 -0.19095115571452E+01  0.21669111525798E+01 -0.54144054977400E+01
H     32     1 -0.60742978604575E+01  0.56554967567191E+01 -0.23464729289412E+01
H     33     1 -0.10284739946941E+02  0.36582263183465E+01 -0.59637866766896E+00
H     34     1  0.50537701641174E+01 -0.93749313042420E+00 -0.23072611118553E+01
H     35     1  0.82832932138325E+01 -0.40967561628259E+01 -0.11784143140521E+01
H     36     1  0.77937596612496E+01 -0.66913879264523E+01  0.26999462005515E+01
H     37     1  0.40689960860552E+01 -0.60953872040082E+01  0.54500646297116E+01
[GTO]
           1 0
 s           4   1.0000000000000000     
   51.049363095579913      -0.16312063210127389     
   8.7911227406887544      -0.19911024581000730     
  0.70640422258929825       0.31882047753655751     
  0.26922813413411617       0.12706504184240380     
 p           4   1.0000000000000000     
   5.8263656140800002       0.73716451545209605     
   1.5106896018720002       0.68216371614850257     
  0.53256483288000001       0.35783053929253711     
  0.21202323690600003        5.3983030275847881E-002

           2 0
 s           4   1.0000000000000000     
   69.137961906196551      -0.20478756370077797     
   11.906129132707308      -0.24997023136827334     
  0.95670827744340703       0.40025880240639616     
  0.36462520496073686       0.15952206667693555     
 p           4   1.0000000000000000     
   8.2124193257781641        1.1321556799186829     
   2.1293576997098116        1.0476840782254817     
  0.75066448202360914       0.54956508217158984     
  0.29885246543283073        8.2908486592766617E-002

           3 0
 s           4   1.0000000000000000     
   51.049363095579913      -0.16312063210127389     
   8.7911227406887544      -0.19911024581000730     
  0.70640422258929825       0.31882047753655751     
  0.26922813413411617       0.12706504184240380     
 p           4   1.0000000000000000     
   5.8263656140800002       0.73716451545209605     
   1.5106896018720002       0.68216371614850257     
  0.53256483288000001       0.35783053929253711     
  0.21202323690600003        5.3983030275847881E-002

           4 0
 s           4   1.0000000000000000     
   51.049363095579913      -0.16312063210127389     
   8.7911227406887544      -0.19911024581000730     
  0.70640422258929825       0.31882047753655751     
  0.26922813413411617       0.12706504184240380     
 p           4   1.0000000000000000     
   5.8263656140800002       0.73716451545209605     
   1.5106896018720002       0.68216371614850257     
  0.53256483288000001       0.35783053929253711     
  0.21202323690600003        5.3983030275847881E-002

           5 0
 s           4   1.0000000000000000     
   63.594024466941008      -0.19234388414721629     
   10.951417231523665      -0.23478107924953728     
  0.87999310257376984       0.37593753901700888     
  0.33538715296521110       0.14982889271862770     
 p           4   1.0000000000000000     
   7.2965040481495080       0.97658666315667420     
   1.8918745450712575       0.90372226730345739     
  0.66694432110824120       0.47404958461536373     
  0.26552202674130870        7.1516067715011844E-002

           6 0
 s           4   1.0000000000000000     
   51.049363095579913      -0.16312063210127389     
   8.7911227406887544      -0.19911024581000730     
  0.70640422258929825       0.31882047753655751     
  0.26922813413411617       0.12706504184240380     
 p           4   1.0000000000000000     
   5.8263656140800002       0.73716451545209605     
   1.5106896018720002       0.68216371614850257     
  0.53256483288000001       0.35783053929253711     
  0.21202323690600003        5.3983030275847881E-002

           7 0
 s           4   1.0000000000000000     
   51.049363095579913      -0.16312063210127389     
   8.7911227406887544      -0.19911024581000730     
  0.70640422258929825       0.31882047753655751     
  0.26922813413411617       0.12706504184240380     
 p           4   1.0000000000000000     
   5.8263656140800002       0.73716451545209605     
   1.5106896018720002       0.68216371614850257     
  0.53256483288000001       0.35783053929253711     
  0.21202323690600003        5.3983030275847881E-002

           8 0
 s           4   1.0000000000000000     
   51.049363095579913      -0.16312063210127389     
   8.7911227406887544      -0.19911024581000730     
  0.70640422258929825       0.31882047753655751     
  0.26922813413411617       0.12706504184240380     
 p           4   1.0000000000000000     
   5.8263656140800002       0.73716451545209605     
   1.5106896018720002       0.68216371614850257     
  0.53256483288000001       0.35783053929253711     
  0.21202323690600003        5.3983030275847881E-002

           9 0
 s           4   1.0000000000000000     
   51.049363095579913      -0.16312063210127389     
   8.7911227406887544      -0.19911024581000730     
  0.70640422258929825       0.31882047753655751     
  0.26922813413411617       0.12706504184240380     
 p           4   1.0000000000000000     
   5.8263656140800002       0.73716451545209605     
   1.5106896018720002       0.68216371614850257     
  0.53256483288000001       0.35783053929253711     
  0.21202323690600003        5.3983030275847881E-002

          10 0
 s           4   1.0000000000000000     
   51.049363095579913      -0.16312063210127389     
   8.7911227406887544      -0.19911024581000730     
  0.70640422258929825       0.31882047753655751     
  0.26922813413411617       0.12706504184240380     
 p           4   1.0000000000000000     
   5.8263656140800002       0.73716451545209605     
   1.5106896018720002       0.68216371614850257     
  0.53256483288000001       0.35783053929253711     
  0.21202323690600003        5.3983030275847881E-002

          11 0
 s           4   1.0000000000000000     
   51.049363095579913      -0.16312063210127389     
   8.7911227406887544      -0.19911024581000730     
  0.70640422258929825       0.31882047753655751     
  0.26922813413411617       0.12706504184240380     
 p           4   1.0000000000000000     
   5.8263656140800002       0.73716451545209605     
   1.5106896018720002       0.68216371614850257     
  0.53256483288000001       0.35783053929253711     
  0.21202323690600003        5.3983030275847881E-002

          12 0
 s           4   1.0000000000000000     
   51.049363095579913      -0.16312063210127389     
   8.7911227406887544      -0.19911024581000730     
  0.70640422258929825       0.31882047753655751     
  0.26922813413411617       0.12706504184240380     
 p           4   1.0000000000000000     
   5.8263656140800002       0.73716451545209605     
   1.5106896018720002       0.68216371614850257     
  0.53256483288000001       0.35783053929253711     
  0.21202323690600003        5.3983030275847881E-002

          13 0
 s           4   1.0000000000000000     
   5.9405971566712825       -8.9372417311598049E-002
   1.6733203164693664      -0.18082641609838965     
  0.30005235337611069       0.21723996338879178     
  0.14762698261069515        6.0930362386553291E-002
 p           4   1.0000000000000000     
   7.6040239430642842      -0.25814820324554671     
  0.78579953064441499       0.29055569447587165     
  0.35515453993277829       0.22849483671210347     
  0.17168954147534055        3.3790487300818996E-002
 d           3   1.0000000000000000     
   1.5157593763923909       0.57480891956705049     
  0.47526859543376815       0.26185396196292493     
  0.18512883107762873        3.4887549426725117E-002

          14 0
 s           4   1.0000000000000000     
   51.049363095579913      -0.16312063210127389     
   8.7911227406887544      -0.19911024581000730     
  0.70640422258929825       0.31882047753655751     
  0.26922813413411617       0.12706504184240380     
 p           4   1.0000000000000000     
   5.8263656140800002       0.73716451545209605     
   1.5106896018720002       0.68216371614850257     
  0.53256483288000001       0.35783053929253711     
  0.21202323690600003        5.3983030275847881E-002

          15 0
 s           4   1.0000000000000000     
   51.049363095579913      -0.16312063210127389     
   8.7911227406887544      -0.19911024581000730     
  0.70640422258929825       0.31882047753655751     
  0.26922813413411617       0.12706504184240380     
 p           4   1.0000000000000000     
   5.8263656140800002       0.73716451545209605     
   1.5106896018720002       0.68216371614850257     
  0.53256483288000001       0.35783053929253711     
  0.21202323690600003        5.3983030275847881E-002

          16 0
 s           4   1.0000000000000000     
   51.049363095579913      -0.16312063210127389     
   8.7911227406887544      -0.19911024581000730     
  0.70640422258929825       0.31882047753655751     
  0.26922813413411617       0.12706504184240380     
 p           4   1.0000000000000000     
   5.8263656140800002       0.73716451545209605     
   1.5106896018720002       0.68216371614850257     
  0.53256483288000001       0.35783053929253711     
  0.21202323690600003        5.3983030275847881E-002

          17 0
 s           4   1.0000000000000000     
   51.049363095579913      -0.16312063210127389     
   8.7911227406887544      -0.19911024581000730     
  0.70640422258929825       0.31882047753655751     
  0.26922813413411617       0.12706504184240380     
 p           4   1.0000000000000000     
   5.8263656140800002       0.73716451545209605     
   1.5106896018720002       0.68216371614850257     
  0.53256483288000001       0.35783053929253711     
  0.21202323690600003        5.3983030275847881E-002

          18 0
 s           4   1.0000000000000000     
   51.049363095579913      -0.16312063210127389     
   8.7911227406887544      -0.19911024581000730     
  0.70640422258929825       0.31882047753655751     
  0.26922813413411617       0.12706504184240380     
 p           4   1.0000000000000000     
   5.8263656140800002       0.73716451545209605     
   1.5106896018720002       0.68216371614850257     
  0.53256483288000001       0.35783053929253711     
  0.21202323690600003        5.3983030275847881E-002

          19 0
 s           4   1.0000000000000000     
   51.049363095579913      -0.16312063210127389     
   8.7911227406887544      -0.19911024581000730     
  0.70640422258929825       0.31882047753655751     
  0.26922813413411617       0.12706504184240380     
 p           4   1.0000000000000000     
   5.8263656140800002       0.73716451545209605     
   1.5106896018720002       0.68216371614850257     
  0.53256483288000001       0.35783053929253711     
  0.21202323690600003        5.3983030275847881E-002

          20 0
 s           4   1.0000000000000000     
   9.3467486618986779      -0.12555278505223622     
   2.6327495395516101      -0.25402983196719575     
  0.47209293248713996       0.30518456643075598     
  0.23227164976623679        8.5596618307884023E-002
 p           4   1.0000000000000000     
   8.9665386862065208      -0.31720921506945488     
  0.92660174979495169       0.35703112638356727     
  0.41879233228792762       0.28077153700708535     
  0.20245345453703623        4.1521319221857041E-002
 d           3   1.0000000000000000     
   3.2059774565484096        2.1323149410288100     
   1.0052389755903053       0.97137517608754442     
  0.39156535544886489       0.12941908235265207     

          21 0
 s           4   1.0000000000000000     
   69.137961906196551      -0.20478756370077797     
   11.906129132707308      -0.24997023136827334     
  0.95670827744340703       0.40025880240639616     
  0.36462520496073686       0.15952206667693555     
 p           4   1.0000000000000000     
   8.2124193257781641        1.1321556799186829     
   2.1293576997098116        1.0476840782254817     
  0.75066448202360914       0.54956508217158984     
  0.29885246543283073        8.2908486592766617E-002

          22 0
 s           3   1.0000000000000000     
   3.3702276975336001       0.27359110588908298     
  0.61389118221497996       0.26460540653860526     
  0.16614291148415999        8.2465947534082318E-002

          23 0
 s           3   1.0000000000000000     
   3.3702276975336001       0.27359110588908298     
  0.61389118221497996       0.26460540653860526     
  0.16614291148415999        8.2465947534082318E-002

          24 0
 s           3   1.0000000000000000     
   3.3702276975336001       0.27359110588908298     
  0.61389118221497996       0.26460540653860526     
  0.16614291148415999        8.2465947534082318E-002

          25 0
 s           3   1.0000000000000000     
   3.3702276975336001       0.27359110588908298     
  0.61389118221497996       0.26460540653860526     
  0.16614291148415999        8.2465947534082318E-002

          26 0
 s           3   1.0000000000000000     
   3.3702276975336001       0.27359110588908298     
  0.61389118221497996       0.26460540653860526     
  0.16614291148415999        8.2465947534082318E-002

          27 0
 s           3   1.0000000000000000     
   3.3702276975336001       0.27359110588908298     
  0.61389118221497996       0.26460540653860526     
  0.16614291148415999        8.2465947534082318E-002

          28 0
 s           3   1.0000000000000000     
   3.3702276975336001       0.27359110588908298     
  0.61389118221497996       0.26460540653860526     
  0.16614291148415999        8.2465947534082318E-002

          29 0
 s           3   1.0000000000000000     
   3.3702276975336001       0.27359110588908298     
  0.61389118221497996       0.26460540653860526     
  0.16614291148415999        8.2465947534082318E-002

          30 0
 s           3   1.0000000000000000     
   3.3702276975336001       0.27359110588908298     
  0.61389118221497996       0.26460540653860526     
  0.16614291148415999        8.2465947534082318E-002

          31 0
 s           3   1.0000000000000000     
   3.3702276975336001       0.27359110588908298     
  0.61389118221497996       0.26460540653860526     
  0.16614291148415999        8.2465947534082318E-002

          32 0
 s           3   1.0000000000000000     
   3.3702276975336001       0.27359110588908298     
  0.61389118221497996       0.26460540653860526     
  0.16614291148415999        8.2465947534082318E-002

          33 0
 s           3   1.0000000000000000     
   3.3702276975336001       0.27359110588908298     
  0.61389118221497996       0.26460540653860526     
  0.16614291148415999        8.2465947534082318E-002

          34 0
 s           3   1.0000000000000000     
   3.3702276975336001       0.27359110588908298     
  0.61389118221497996       0.26460540653860526     
  0.16614291148415999        8.2465947534082318E-002

          35 0
 s           3   1.0000000000000000     
   3.3702276975336001       0.27359110588908298     
  0.61389118221497996       0.26460540653860526     
  0.16614291148415999        8.2465947534082318E-002

          36 0
 s           3   1.0000000000000000     
   3.3702276975336001       0.27359110588908298     
  0.61389118221497996       0.26460540653860526     
  0.16614291148415999        8.2465947534082318E-002

          37 0
 s           3   1.0000000000000000     
   3.3702276975336001       0.27359110588908298     
  0.61389118221497996       0.26460540653860526     
  0.16614291148415999        8.2465947534082318E-002

[MO]
Sym=     1a
Ene=   -1.0603731328995933     
Spin= Alpha
Occup=     2.00000000
           1  -6.2495191805078968E-006
           2   4.7098517488136593E-006
           3   1.0384177904602527E-005
           4   4.8385552549435357E-006
           5  -1.3678058089055296E-005
           6   5.9883647734267721E-005
           7   1.9119851008322458E-004
           8  -2.4364406922229408E-005
           9  -1.4476391315058871E-004
          10   9.4879944537822953E-005
          11   1.5001688975983208E-004
          12   4.0496910595518469E-005
          13  -9.8014969583030856E-004
          14   4.9052194451704514E-004
          15   5.6556159719949766E-004
          16  -9.7945094352543463E-004
          17  -1.7223689203211133E-004
          18  -3.2079077958273906E-005
          19  -3.9571367303289239E-006
          20  -1.6603915675737728E-004
          21  -5.2807677541786034E-005
          22  -4.8499904460842531E-006
          23  -1.4087008492748436E-005
          24  -6.3709965879755378E-005
          25  -1.6403045561258017E-004
          26  -5.2853894975802829E-005
          27   2.2334989407775551E-005
          28  -1.7100803584144781E-004
          29  -3.7414406704132582E-005
          30  -4.8565623575963916E-005
          31   1.7056044552782251E-005
          32  -3.1889382346178880E-005
          33  -2.3957620226873866E-005
          34  -2.7459815798963907E-005
          35   1.5204488762236486E-005
          36  -3.2220347432083150E-005
          37  -2.6082757469103654E-005
          38  -1.6590111566902806E-005
          39   2.8561775177493745E-005
          40  -5.4496416270834041E-005
          41  -3.0053919897430466E-006
          42  -3.1421330317477853E-006
          43   4.1327079486584918E-006
          44   2.8230269296377924E-007
          45  -1.0483623057335176E-006
          46  -2.6064328762663990E-006
          47   4.5133188492321256E-007
          48  -2.0760967993445897E-007
          49  -1.8330171053680879E-005
          50  -1.1447471786003706E-005
          51   3.4204465252621639E-006
          52   1.1523931550570388E-006
          53  -1.1391128349833860E-005
          54   6.5977976726487262E-006
          55   4.7933306771851340E-006
          56   7.3649437461116843E-006
          57  -2.7316149850078874E-006
          58   2.6316388630484617E-006
          59  -2.3358470445986779E-003
          60  -3.4238245216993568E-004
          61   2.3704509544844347E-003
          62  -2.8258288491893107E-003
          63  -5.6768326636801774E-004
          64   5.8192750094326678E-004
          65   2.1497336408174802E-004
          66  -8.3159594248311854E-004
          67  -2.0801030139067255E-004
          68   4.0456717818005810E-004
          69  -5.8643835419766427E-005
          70  -3.0402425654298002E-004
          71  -6.3292233482725301E-004
          72   9.1912173818640747E-004
          73  -4.1249668176941923E-004
          74  -3.2254752697053222E-004
          75  -2.7134838028346512E-003
          76   2.1661707907312741E-003
          77  -2.0123970008879143E-003
          78   6.2285372297928802E-004
          79  -3.7224791389758302E-002
          80   4.6438104781271139E-002
          81  -5.1441465204543676E-003
          82  -3.7519601333327518E-002
          83 -0.97816861479411532     
          84   6.2809089421586861E-003
          85   4.4227456397276160E-003
          86   3.9928841414885981E-003
          87   2.1809197898109943E-003
          88  -2.4885466234056131E-003
          89   3.0762683359461860E-004
          90  -4.4379145578977492E-004
          91  -4.8681698128195307E-003
          92   6.6294980038366660E-004
          93  -2.4392017388871023E-005
          94   8.9019020684378116E-006
          95   1.3203844314402287E-005
          96  -7.2640877223932348E-006
          97  -7.7003311327347821E-006
          98   8.9418415905960638E-006
          99  -2.4759400526172989E-006
         100   3.6426117408617136E-003
         101   3.2629333088934549E-005
         102  -2.1328075154205968E-005
         103   7.7960645311477028E-004
         104  -5.7703509077900948E-005
         105  -3.4952539599255828E-005
         106  -1.2502888538675222E-005
         107  -1.6298692367114173E-006
         108  -4.1514110084040113E-008
         109  -2.8780399544309806E-004
         110  -1.3685761692798422E-004
         111  -3.3834294506779528E-004
         112   3.7016837302749819E-003
Sym=     2a
Ene=  -0.74632476366812084     
Spin= Alpha
Occup=     2.00000000
           1  0.12015601412125086     
           2  -4.4029822014775684E-002
           3 -0.10652235744836423     
           4  -4.9561869355457887E-002
           5  0.68979683269907410     
           6   3.5180627221680569E-002
           7  -4.8722299049226035E-003
           8 -0.11927892907263259     
           9  0.29430053448618471     
          10  -9.0861420177109440E-003
          11   8.2443669633044281E-002
          12  0.14956283966446832     
          13   3.2790774394593401E-002
          14   1.2173200100415142E-002
          15   3.3916187770156390E-002
          16   1.9145864731830293E-002
          17  -8.0973700095015092E-004
          18   9.6865064682242260E-004
          19   2.6024331322296542E-003
          20   2.3232555111122586E-003
          21  -1.1838728977984841E-003
          22  -2.2162630392088983E-004
          23  -3.8359557869600602E-004
          24  -1.2350256832307507E-004
          25  -2.2119193033864185E-004
          26  -1.4735259784435050E-004
          27  -6.9800743594110293E-005
          28   4.4150057466597693E-005
          29  -7.2462534077784654E-005
          30  -3.2966236436381889E-005
          31   2.1578731131073387E-005
          32   2.8899499192667362E-005
          33  -2.6895689800837126E-005
          34   9.1957407717268232E-005
          35   5.0955196186499550E-005
          36   1.0900192116784869E-004
          37   1.2358056312198568E-004
          38   5.7557664961981774E-004
          39   2.8443942941094234E-004
          40   9.6112875966723570E-004
          41  -5.6553875370045089E-006
          42   6.5275164504667354E-006
          43   5.3461124861135805E-006
          44   9.5397626813487973E-006
          45  -8.0869398053519929E-006
          46  -2.0525039707835195E-006
          47   5.1307160541665460E-006
          48   1.4630913906311333E-006
          49  -8.4018554553507547E-005
          50  -6.4768604705315993E-006
          51   4.6346349123454019E-008
          52   2.2006530641825940E-006
          53  -2.6266040366928270E-006
          54  -2.9330282057457450E-007
          55   2.9199068572674015E-006
          56   1.0575584171665285E-006
          57  -6.2076343086518918E-006
          58  -2.8779872413875934E-006
          59   4.6957901897242606E-003
          60  -1.7916199029729876E-003
          61   7.5266809322654029E-003
          62   1.2699325631279209E-003
          63   7.1831260356949945E-005
          64  -4.9909898387492631E-004
          65   7.4847997738192932E-004
          66   4.1426574095751743E-004
          67  -1.9728573683439846E-004
          68   4.1451456033341440E-005
          69   8.4277084440782010E-006
          70   1.4375914032804887E-005
          71  -1.1044301264789094E-004
          72   3.7196938649156422E-005
          73  -1.9302293790596898E-005
          74   1.4404111009022685E-005
          75  -2.2999153048672481E-004
          76   4.8210874306355369E-005
          77   1.1469011328549286E-005
          78   3.0834961319929235E-005
          79   3.2308252565176900E-004
          80  -6.7932973845754552E-005
          81   1.2659582984203815E-003
          82  -3.8554875854424937E-004
          83  -4.4309774972413075E-004
          84   1.1108969120651738E-004
          85   3.1632310933984667E-004
          86  -2.2955431741902540E-004
          87   5.2811828877518796E-006
          88  -7.2855272126252839E-006
          89   2.0043443248734052E-006
          90  -3.2704120542751288E-005
          91  -6.1369486363245740E-006
          92   4.6781945564904972E-005
          93  0.12338177088603200     
          94  -4.5188376260343568E-002
          95  -2.2833233831801730E-002
          96   8.7371874966017005E-002
          97   6.1096728641016947E-003
          98   1.1065750761058977E-003
          99   5.7269110156549135E-003
         100   5.3890870490665250E-003
         101  -2.7454942946675252E-005
         102  -3.5014897855873363E-005
         103  -1.9791425055350496E-005
         104  -6.6806294479232302E-006
         105   8.9626446498082199E-004
         106  -7.2197949249072955E-005
         107  -3.3465767321587367E-006
         108   1.8118048604483185E-006
         109  -1.7375763849037038E-004
         110   4.8412147355813773E-006
         111  -6.6611775809960483E-007
         112  -8.4991893374291404E-006
Sym=     3a
Ene=  -0.72753139016607482     
Spin= Alpha
Occup=     2.00000000
           1   6.6177435946055012E-005
           2  -2.1723900544506599E-005
           3  -4.6028189563442668E-005
           4  -8.8231066084013247E-006
           5   1.8746986921748494E-004
           6   2.4797626309112943E-005
           7   5.2888745273326003E-005
           8   4.5753759648569987E-005
           9  -1.0904913510969975E-004
          10   1.2030160185448466E-005
          11   3.4745203003892166E-005
          12   9.0825527862339178E-005
          13  -2.5575958070871190E-004
          14   7.3494643193499707E-006
          15   1.9994811808289600E-005
          16   3.0597772189774564E-005
          17  -4.2046061567074556E-004
          18   4.0368749829312306E-005
          19   7.1113216906073975E-005
          20   2.8745661510156040E-005
          21  -7.3906114683988504E-004
          22  -7.5641143118333775E-004
          23   3.5131945100860319E-004
          24   2.3913860676039967E-004
          25   9.2708178269042280E-003
          26  -9.4248419745381444E-003
          27   8.3068877272274091E-003
          28   1.8843013890093665E-003
          29  0.10364433472252449     
          30  -6.5597956923735865E-002
          31   6.4906809223790512E-003
          32   2.2481988857188370E-002
          33   2.2964287073096185E-002
          34  -1.4385474181186199E-002
          35  -1.0583890997068255E-002
          36   6.7347565236308832E-003
          37   5.9294527611834849E-005
          38  -1.6350948804759880E-003
          39  -5.3496955884196385E-004
          40   6.6586566885105112E-004
          41   1.9582691665828801E-002
          42  -6.5555907907660976E-003
          43  -1.3854869314016225E-002
          44   4.3433071706891688E-003
          45   8.9550858998223626E-002
          46   9.3055777218937902E-003
          47  -6.6115756184860458E-002
          48   6.4589334398094857E-003
          49  0.89986173785110191     
          50   1.1306917934822766E-002
          51   4.7545663375432754E-003
          52  -4.4202104902539311E-003
          53  -1.1887396595038340E-004
          54   5.7728466350499017E-004
          55  -4.5841069755460677E-004
          56  -3.6820428946318312E-003
          57   6.3843317074923831E-004
          58   1.2553737637010026E-003
          59  -7.6588154702595412E-005
          60   3.9501196396905405E-005
          61  -1.6788441470049762E-005
          62   1.9783866258075010E-005
          63  -1.4113237289339619E-005
          64   1.3299724718716659E-005
          65  -2.7911964221856281E-006
          66  -2.9793039270707742E-006
          67  -6.2203755842591730E-007
          68   1.7211520064795550E-006
          69  -7.5230128390624116E-007
          70  -7.0100266991994455E-008
          71  -2.6533474175261164E-007
          72   3.1128555947140302E-007
          73  -2.7991590937922636E-007
          74   3.6417283568726424E-007
          75   2.5952120540207752E-006
          76  -1.7458194488303469E-006
          77   5.1685057135420380E-007
          78   2.6353431447583679E-006
          79  -6.5166270257014700E-006
          80   3.4530368641455966E-007
          81  -7.2105736904372834E-006