33
Cr_III_cation, conf. 0, energy: -28100.085192614333 kcal_mol-1
C           -1.85302   2.41753  -0.51093
P           -1.56592   0.72076   0.19555
C           -2.18682   0.61838   1.94635
C           -2.62249  -0.43472  -0.78755
C           -1.99177  -1.82944  -0.71555
N           -0.59214  -1.82906  -1.17527
Cr           0.49132  -0.38079  -0.29495
Cl           0.40164  -1.51844   1.67997
Cl           0.61054   0.73775  -2.27791
N            1.54866   1.07723   0.58760
C            2.95960   1.02303   0.19270
C            3.50910  -0.39503   0.30860
P            2.54045  -1.51028  -0.81093
H           -1.16533   3.14030  -0.02651
H           -1.67234   2.40920  -1.60458
H           -2.90191   2.72289  -0.31822
H           -1.49435   1.17001   2.61460
H           -2.24737  -0.44141   2.26626
H           -3.19680   1.07330   2.00571
H           -2.65022  -0.09685  -1.84506
H           -3.65540  -0.44846  -0.38053
H           -2.04322  -2.20065   0.33055
H           -2.58839  -2.52770  -1.34293
H           -0.17235  -2.76053  -0.95318
H           -0.57822  -1.71664  -2.21437
H            1.48062   1.00079   1.62807
H            1.16280   2.00899   0.31245
H            3.55549   1.69950   0.84437
H            3.07375   1.37895  -0.85432
H            4.58037  -0.41828   0.01774
H            3.41223  -0.74994   1.35646
H            3.10430  -1.14684  -2.09956
H            2.74721  -2.79354  -0.16246
33
Cr_III_cation, conf. 1, energy: -28100.15842617021 KCAL/mol
C           -2.34082  -1.50404   1.27689
P           -1.64140  -0.61208  -0.19870
C           -2.02769  -1.53124  -1.76919
C           -2.54718   0.99619  -0.29874
C           -1.81035   2.00858   0.58490
N           -0.39304   2.14691   0.20723
Cr           0.51981   0.36137   0.03756
Cl           0.62733   0.61428  -2.22652
Cl           0.42627   0.08145   2.29768
N            2.33333   1.20068   0.22588
C            3.35374   0.19280   0.53153
C            3.23562  -1.01061  -0.39826
P            1.56399  -1.78030  -0.17892
H           -2.33477  -0.83672   2.16221
H           -3.38503  -1.80974   1.06087
H           -1.72882  -2.40535   1.48554
H           -1.81190  -0.89081  -2.64783
H           -3.10151  -1.80937  -1.77758
H           -1.40896  -2.45044  -1.81908
H           -2.54532   1.35401  -1.35001
H           -3.59587   0.86626   0.04203
H           -1.88580   1.69001   1.64690
H           -2.31533   2.99596   0.49992
H            0.08608   2.71970   0.93861
H           -0.33345   2.67240  -0.69438
H            2.32301   1.90477   0.99848
H            2.59777   1.69937  -0.65410
H            3.24929  -0.14407   1.58590
H            4.36578   0.64109   0.42091
H            3.35517  -0.68283  -1.45258
H            4.02128  -1.75873  -0.16207
H            1.75104  -2.47336   1.08405
H            1.39772  -2.44613  -1.45916
