fluoroethanol                                                           
SP        RB3LYP                                                      6-31G(d)            
Number of atoms                            I                6
Info1-9                                    I   N=           9
          15          15           0           0           0         110
           1          18        -502
Full Title                                 C   N=           2
fluoroethanol           
Route                                      C   N=           2
# b3lyp/6-31G*          
Charge                                     I                0
Multiplicity                               I                1
Number of electrons                        I               26
Number of alpha electrons                  I               13
Number of beta electrons                   I               13
Number of basis functions                  I               51
Number of independent functions            I               51
Number of point charges in /Mol/           I                0
Number of translation vectors              I                0
Atomic numbers                             I   N=           6
           8           6           9           1           1           1
Nuclear charges                            R   N=           6
  8.00000000E+00  6.00000000E+00  9.00000000E+00  1.00000000E+00  1.00000000E+00
  1.00000000E+00
Current cartesian coordinates              R   N=          18
 -2.04709148E+00 -6.80198871E-01  1.56205464E-05  6.70913563E-02  9.45080143E-01
 -4.74373260E-05  2.15030174E+00 -5.39103066E-01  1.29778580E-05 -3.52887073E+00
  3.97963754E-01 -3.81408252E-05  7.52037264E-02  2.11246033E+00 -1.70268545E+00
  7.51350541E-02  2.11261362E+00  1.70276645E+00
Number of symbols in /Mol/                 I                0
Int Atom Types                             I   N=           6
           0           0           0           0           0           0
Force Field                                I                0
Atom Types                                 C   N=           6
                                                            
            
MM charges                                 R   N=           6
  0.00000000E+00  0.00000000E+00  0.00000000E+00  0.00000000E+00  0.00000000E+00
  0.00000000E+00
Integer atomic weights                     I   N=           6
          16          12          19           1           1           1
Real atomic weights                        R   N=           6
  1.59949146E+01  1.20000000E+01  1.89984032E+01  1.00782504E+00  1.00782504E+00
  1.00782504E+00
Atom fragment info                         I   N=           6
           0           0           0           0           0           0
Atom residue num                           I   N=           6
           0           0           0           0           0           0
Nuclear spins                              I   N=           6
           0           0           1           1           1           1
Nuclear ZEff                               R   N=           6
 -5.60000000E+00 -3.60000000E+00 -6.75000000E+00 -1.00000000E+00 -1.00000000E+00
 -1.00000000E+00
Nuclear ZNuc                               R   N=           6
  8.00000000E+00  6.00000000E+00  9.00000000E+00  1.00000000E+00  1.00000000E+00
  1.00000000E+00
Nuclear QMom                               R   N=           6
  0.00000000E+00  0.00000000E+00  0.00000000E+00  0.00000000E+00  0.00000000E+00
  0.00000000E+00
Nuclear GFac                               R   N=           6
  0.00000000E+00  0.00000000E+00  2.62886700E+00  2.79284600E+00  2.79284600E+00
  2.79284600E+00
MicOpt                                     I   N=           6
          -1          -1          -1          -1          -1          -1
Number of residues                         I                0
Number of secondary structures             I                0
SymInf integers                            I   N=          26
           1           1           1           1           1           0
           0           0           0           0           0           0
           0           0           0           0           0           0
           0           0           0           0           0           0
           0           0
RotTr to input orientation                 R   N=          12
 -9.97378345E-01 -5.47806456E-02 -4.72812672E-02 -5.97101039E-02  9.92129030E-01
  1.10066758E-01  4.08795897E-02  1.12601370E-01 -9.92798968E-01 -4.90056861E-01
 -7.48389691E-01 -1.05054236E-01
Number of contracted shells                I               18
Number of primitive shells                 I               45
Pure/Cartesian d shells                    I                1
Pure/Cartesian f shells                    I                0
Highest angular momentum                   I                2
Largest degree of contraction              I                6
Shell types                                I   N=          18
           0          -1          -1           2           0          -1
          -1           2           0          -1          -1           2
           0           0           0           0           0           0
Number of primitives per shell             I   N=          18
           6           3           1           1           6           3
           1           1           6           3           1           1
           3           1           3           1           3           1
Shell to atom map                          I   N=          18
           1           1           1           1           2           2
           2           2           3           3           3           3
           4           4           5           5           6           6
Primitive exponents                        R   N=          45
  5.48467166E+03  8.25234946E+02  1.88046958E+02  5.29645000E+01  1.68975704E+01
  5.79963534E+00  1.55396162E+01  3.59993359E+00  1.01376175E+00  2.70005823E-01
  8.00000000E-01  3.04752488E+03  4.57369518E+02  1.03948685E+02  2.92101553E+01
  9.28666296E+00  3.16392696E+00  7.86827235E+00  1.88128854E+00  5.44249258E-01
  1.68714478E-01  8.00000000E-01  7.00171309E+03  1.05136609E+03  2.39285690E+02
  6.73974453E+01  2.15199573E+01  7.40310130E+00  2.08479528E+01  4.80830834E+00
  1.34406986E+00  3.58151393E-01  8.00000000E-01  1.87311370E+01  2.82539436E+00
  6.40121692E-01  1.61277759E-01  1.87311370E+01  2.82539436E+00  6.40121692E-01
  1.61277759E-01  1.87311370E+01  2.82539436E+00  6.40121692E-01  1.61277759E-01
Contraction coefficients                   R   N=          45
  1.83107443E-03  1.39501722E-02  6.84450781E-02  2.32714336E-01  4.70192898E-01
  3.58520853E-01 -1.10777550E-01 -1.48026263E-01  1.13076702E+00  1.00000000E+00
  1.00000000E+00  1.83473713E-03  1.40373228E-02  6.88426223E-02  2.32184443E-01
  4.67941348E-01  3.62311985E-01 -1.19332420E-01 -1.60854152E-01  1.14345644E+00
  1.00000000E+00  1.00000000E+00  1.81961690E-03  1.39160796E-02  6.84053245E-02
  2.33185760E-01  4.71267439E-01  3.56618546E-01 -1.08506975E-01 -1.46451658E-01
  1.12868858E+00  1.00000000E+00  1.00000000E+00  3.34946043E-02  2.34726953E-01
  8.13757326E-01  1.00000000E+00  3.34946043E-02  2.34726953E-01  8.13757326E-01
  1.00000000E+00  3.34946043E-02  2.34726953E-01  8.13757326E-01  1.00000000E+00
P(S=P) Contraction coefficients            R   N=          45
  0.00000000E+00  0.00000000E+00  0.00000000E+00  0.00000000E+00  0.00000000E+00
  0.00000000E+00  7.08742682E-02  3.39752839E-01  7.27158577E-01  1.00000000E+00
  0.00000000E+00  0.00000000E+00  0.00000000E+00  0.00000000E+00  0.00000000E+00
  0.00000000E+00  0.00000000E+00  6.89990666E-02  3.16423961E-01  7.44308291E-01
  1.00000000E+00  0.00000000E+00  0.00000000E+00  0.00000000E+00  0.00000000E+00
  0.00000000E+00  0.00000000E+00  0.00000000E+00  7.16287242E-02  3.45912103E-01
  7.22469956E-01  1.00000000E+00  0.00000000E+00  0.00000000E+00  0.00000000E+00
  0.00000000E+00  0.00000000E+00  0.00000000E+00  0.00000000E+00  0.00000000E+00
  0.00000000E+00  0.00000000E+00  0.00000000E+00  0.00000000E+00  0.00000000E+00
Coordinates of each shell                  R   N=          54
 -2.04709148E+00 -6.80198871E-01  1.56205464E-05 -2.04709148E+00 -6.80198871E-01
  1.56205464E-05 -2.04709148E+00 -6.80198871E-01  1.56205464E-05 -2.04709148E+00
 -6.80198871E-01  1.56205464E-05  6.70913563E-02  9.45080143E-01 -4.74373260E-05
  6.70913563E-02  9.45080143E-01 -4.74373260E-05  6.70913563E-02  9.45080143E-01
 -4.74373260E-05  6.70913563E-02  9.45080143E-01 -4.74373260E-05  2.15030174E+00
 -5.39103066E-01  1.29778580E-05  2.15030174E+00 -5.39103066E-01  1.29778580E-05
  2.15030174E+00 -5.39103066E-01  1.29778580E-05  2.15030174E+00 -5.39103066E-01
  1.29778580E-05 -3.52887073E+00  3.97963754E-01 -3.81408252E-05 -3.52887073E+00
  3.97963754E-01 -3.81408252E-05  7.52037264E-02  2.11246033E+00 -1.70268545E+00
  7.52037264E-02  2.11246033E+00 -1.70268545E+00  7.51350541E-02  2.11261362E+00
  1.70276645E+00  7.51350541E-02  2.11261362E+00  1.70276645E+00
Num ILSW                                   I              100
ILSW                                       I   N=         100
           0           1           0           0           2           0
           0           0           0           0         402          -1
           5           0           0           0           0           0
           0           0           1           0           0           0
           1           0           0           0           0           0
           0           0      100000           0          -1           0
           0           0           0           0           0           0
           0           0           0           1           0           0
           0 -2000000000           1           0           0           0
           0           0           4          52           0           0
           0           0           5           0           0           0
           0           0           0           0           0           1
           0           0           0           0           0           0
           0           0           0           0           0           0
           0           0           0           0           0           0
           0           0           0           0           0           0
           0           0           0           0
Num RLSW                                   I               52
RLSW                                       R   N=          52
  8.00000000E-01  7.20000000E-01  1.00000000E+00  8.10000000E-01  2.00000000E-01
  0.00000000E+00  0.00000000E+00  1.00000000E+00  0.00000000E+00  0.00000000E+00
  0.00000000E+00  0.00000000E+00  1.00000000E+00  0.00000000E+00  0.00000000E+00
  0.00000000E+00  0.00000000E+00  1.00000000E+00  0.00000000E+00  0.00000000E+00
  0.00000000E+00  0.00000000E+00  1.00000000E+00  0.00000000E+00  0.00000000E+00
  0.00000000E+00  0.00000000E+00  1.00000000E+00  0.00000000E+00  0.00000000E+00
  0.00000000E+00  0.00000000E+00  1.00000000E+00  0.00000000E+00  0.00000000E+00
  0.00000000E+00  0.00000000E+00  0.00000000E+00  1.00000000E+00  1.00000000E+00
  0.00000000E+00  1.00000000E+00  0.00000000E+00  0.00000000E+00  0.00000000E+00
  0.00000000E+00  0.00000000E+00  0.00000000E+00  0.00000000E+00  0.00000000E+00
  0.00000000E+00  0.00000000E+00
MxBond                                     I                4
NBond                                      I   N=           6
           2           4           1           1           1           1
IBond                                      I   N=          24
           2           4           0           0           1           3
           5           6           2           0           0           0
           1           0           0           0           2           0
           0           0           2           0           0           0
RBond                                      R   N=          24
  1.00000000E+00  1.00000000E+00  0.00000000E+00  0.00000000E+00  1.00000000E+00
  1.00000000E+00  1.00000000E+00  1.00000000E+00  1.00000000E+00  0.00000000E+00
  0.00000000E+00  0.00000000E+00  1.00000000E+00  0.00000000E+00  0.00000000E+00
  0.00000000E+00  1.00000000E+00  0.00000000E+00  0.00000000E+00  0.00000000E+00
  1.00000000E+00  0.00000000E+00  0.00000000E+00  0.00000000E+00
Virial Ratio                               R      2.007342882431146E+00
SCF Energy                                 R     -2.149465760951503E+02
Total Energy                               R     -2.149465760951503E+02
RMS Density                                R      3.278329515538364E-09
Job Status                                 I                1
Nuclear derivative order                   I                0
External E-field                           R   N=          35
  0.00000000E+00  0.00000000E+00  0.00000000E+00  0.00000000E+00  0.00000000E+00
  0.00000000E+00  0.00000000E+00  0.00000000E+00  0.00000000E+00  0.00000000E+00
  0.00000000E+00  0.00000000E+00  0.00000000E+00  0.00000000E+00  0.00000000E+00
  0.00000000E+00  0.00000000E+00  0.00000000E+00  0.00000000E+00  0.00000000E+00
  0.00000000E+00  0.00000000E+00  0.00000000E+00  0.00000000E+00  0.00000000E+00
  0.00000000E+00  0.00000000E+00  0.00000000E+00  0.00000000E+00  0.00000000E+00
  0.00000000E+00  0.00000000E+00  0.00000000E+00  0.00000000E+00  0.00000000E+00
IOpCl                                      I                0
IROHF                                      I                0
Alpha Orbital Energies                     R   N=          51
 -2.46845235E+01 -1.91595363E+01 -1.03108753E+01 -1.20580292E+00 -1.03171004E+00
 -6.82124656E-01 -5.49738019E-01 -5.13232052E-01 -4.97590220E-01 -3.94892159E-01
 -3.64735330E-01 -3.61345320E-01 -2.81276417E-01  6.59759687E-02  1.21552001E-01
  1.56186507E-01  1.66032467E-01  2.17780477E-01  4.98654123E-01  5.20434331E-01
  6.24062593E-01  7.65787224E-01  8.10321594E-01  8.26730577E-01  8.77503981E-01
  9.43942510E-01  9.66842926E-01  1.03269008E+00  1.13838056E+00  1.29358474E+00
  1.33683661E+00  1.42737943E+00  1.44390356E+00  1.48021573E+00  1.71457981E+00
  1.79363244E+00  1.83761761E+00  1.89730003E+00  1.94080577E+00  2.03373740E+00
  2.10453717E+00  2.15114636E+00  2.38116953E+00  2.42440620E+00  2.45125152E+00
  2.54945368E+00  2.82565763E+00  3.01291427E+00  3.69603860E+00  4.18944798E+00
  4.28240700E+00
Alpha MO coefficients                      R   N=        2601
 -2.94164952E-07  6.25651883E-05  5.59034507E-06 -1.13235229E-06 -8.32295383E-10
 -7.79148548E-06 -1.33239808E-04 -1.91269594E-05  5.35223038E-09 -1.21916914E-04
 -5.05928244E-06  3.46157052E-05 -1.85263432E-06  1.00045027E-09  2.62508983E-09
 -2.22702511E-06  2.41155817E-04  5.36498750E-04 -4.42505624E-04  1.98704007E-08
 -6.74583582E-04 -4.74486240E-04  2.82925071E-04 -2.79351963E-08  3.53564072E-04
  2.00514263E-04 -2.99311872E-05 -2.59439888E-04  1.09117402E-08 -1.19762864E-08
  9.92993906E-01  1.96515105E-02 -6.02934323E-04  4.52733682E-04 -2.22756133E-08
  1.51774476E-02  3.21486734E-04 -2.37438189E-04  1.48245809E-08 -8.30139203E-03
 -8.14217095E-03 -7.98238164E-03  2.64875222E-04 -1.16726580E-08  7.90055872E-09
  1.56542844E-05 -1.10959768E-04  3.08176729E-05 -5.20729265E-05  3.08330570E-05
 -5.20603279E-05  9.92786674E-01  2.60380135E-02 -1.39638153E-04  1.01289242E-03
 -5.83056699E-08  1.14133406E-02  4.60922588E-04  1.45562777E-04  8.25765174E-09
 -7.98517505E-03 -8.01142496E-03 -7.93405375E-03 -2.01738142E-05  3.10661905E-09
  5.32805491E-09  1.72790762E-05  3.14982894E-04 -2.60800394E-04 -2.62474140E-04
  1.86013094E-08 -2.15048997E-03  4.12852952E-04  9.50877360E-04 -7.23475042E-08
  1.41459155E-04  1.28499094E-04  4.57197721E-05  1.56609207E-04 -4.94545097E-09
 -1.60805881E-09 -4.55739080E-05 -2.18505913E-04  5.38274150E-06 -2.13792443E-05
 -1.18748233E-09  1.04317780E-03 -1.08918909E-04  1.42067991E-04  3.30783449E-09
 -2.80434671E-04 -1.60953450E-04 -1.09115416E-04 -6.14942421E-05  2.71195240E-10
  3.64200878E-09  4.04107392E-04 -1.08689003E-03  6.16938743E-05  5.10491671E-05
  6.17048643E-05  5.10753224E-05 -1.08392840E-04 -1.68047187E-04 -1.44818253E-04
 -3.12468057E-05  6.21369994E-09  1.74807279E-03  2.42538906E-04 -9.91072885E-05
 -2.99907280E-08 -5.50012601E-04 -2.68845124E-04 -5.48891419E-05 -3.41253865E-04
 -7.89954247E-10  6.95747874E-09  9.92994330E-01  4.79920622E-02  4.94053448E-04
 -1.08969243E-03 -6.34056691E-08 -1.15286846E-02  3.92308029E-04 -5.32583892E-04
  1.93562410E-07 -8.44562759E-03 -8.70632613E-03 -8.99892445E-03 -2.65366942E-04
  3.07217100E-09 -1.21135112E-07 -1.25974425E-04 -2.96387837E-04 -3.89828784E-05
  3.09151787E-05 -7.97668022E-10  1.53419289E-03  7.88551501E-04 -5.62755709E-04
  1.38592433E-08 -8.40821343E-04 -4.11150154E-04 -8.09670143E-05  5.89674086E-04
 -1.36918076E-08  2.28593103E-08  5.83912402E-05  4.61717164E-04 -1.69916672E-04
  2.55486285E-03 -1.69797027E-04  2.55430454E-03 -2.87423863E-02  6.03996237E-02
  1.98955717E-02  1.65507627E-02 -7.72815351E-07  6.31211807E-02  1.20909788E-02
  1.04877858E-02 -7.27058486E-07  4.49270209E-03  1.44486989E-03 -2.65863488E-03
  2.74855363E-03 -1.54345585E-07 -2.64599392E-07 -7.09018935E-02  1.33292018E-01
  7.59780293E-02 -6.73590813E-02  1.20384295E-06  3.52924712E-02  6.20400888E-03
  5.18079543E-03  3.84329603E-07  9.91164854E-03  1.33919451E-04 -1.07746748E-02
 -1.61679523E-02  3.76621687E-07 -4.68042860E-07 -2.16203971E-01  4.84869897E-01
 -8.09259505E-02  5.73863380E-02 -2.71841930E-06  4.46057321E-01 -3.94979221E-02
  2.83213727E-02 -1.73739094E-06  2.09650022E-02  1.43954071E-02  7.85281242E-03
 -1.06909197E-02  5.15340267E-07 -3.79344669E-07  1.10332640E-02 -1.52675234E-03
  1.88359608E-02  1.15319546E-03  1.88310735E-02  1.15303904E-03 -2.00713396E-01
  4.46938765E-01 -3.06350368E-03  1.19711079E-01 -5.75513841E-06  4.26460154E-01
 -1.98490943E-03  5.85294704E-02 -3.08039780E-06  1.32816150E-02  1.06108163E-02
 -1.04435912E-02 -5.69018834E-03  3.05923713E-07 -1.22905884E-06 -5.92679677E-02
  1.17068804E-01 -1.20981030E-01 -4.54022642E-02 -2.20184696E-07  3.69762992E-02
 -1.28987003E-02  1.15311827E-02 -3.84176566E-07  6.86546993E-03 -8.44748428E-05
 -5.86532603E-03  2.15974058E-02 -5.39184847E-07 -3.87256095E-07  4.90340419E-02
 -1.15839930E-01 -1.05032306E-02 -8.05029226E-03  2.46041775E-07 -9.92107478E-02
 -1.14811911E-02 -1.15620885E-03 -6.83875190E-08 -1.64218641E-03 -4.70986274E-03
 -4.21801205E-03 -8.88840818E-04  8.71007664E-08 -2.34050460E-08  1.31093314E-01
 -5.58370754E-04  2.09563411E-02  3.86151697E-04  2.09523794E-02  3.86724212E-04
  5.74876934E-02 -1.32674248E-01  1.97744931E-01  3.26834131E-02 -5.77504311E-06
 -1.64901085E-01  9.70342335E-02  1.57156762E-02 -3.81390972E-06 -3.07954292E-03
  4.33912726E-03  1.36653138E-03  2.08012735E-02 -1.49773584E-06 -8.04723782E-07
 -1.69602840E-01  3.65411573E-01  1.58165215E-02  6.87066208E-02 -3.80891501E-05
  2.87851398E-01 -1.23185087E-02  5.58650680E-02 -5.39966034E-06 -1.61228704E-02
 -3.30253867E-03  5.11643563E-03 -3.72674410E-04 -7.02612413E-07 -3.10097424E-06
  7.09699385E-02 -1.49602012E-01 -1.65200129E-01  1.39408455E-01 -1.43232270E-05
 -2.37838605E-01 -9.65912248E-02  8.00154819E-02 -9.02248111E-06  1.12060995E-02
  8.53560486E-03  6.10813649E-04 -1.22036275E-02  1.29660891E-06 -1.11231866E-06
 -1.09152274E-01 -3.93229305E-02  1.40168700E-01  3.60060177E-02  1.40122302E-01
  3.59904328E-02 -2.55111949E-02  6.10674248E-02  3.70594077E-01 -9.82002013E-02
  3.62757946E-05  8.27177941E-02  1.80502979E-01 -6.30891156E-02  2.14624119E-05
 -3.48157840E-04 -1.21430186E-02  2.46260306E-03  2.00314404E-02  2.88219476E-07
  3.54602754E-06  1.84383917E-02 -3.11177719E-02 -8.38251274E-02 -3.20303724E-01
  1.11998006E-04 -5.22052083E-02 -2.52419529E-02 -1.18049562E-01  3.34541867E-05
  2.70089338E-03  1.70372090E-02 -1.76096938E-02  9.92540012E-03  1.01041602E-06
  3.95952299E-06  1.40248343E-02 -1.94497648E-02 -1.99646100E-01 -1.20628414E-01
  6.07255475E-05 -7.27301483E-02 -1.16180833E-01 -7.94880987E-02  3.82458877E-05
  1.58370795E-02 -4.44691700E-03  3.69425527E-03  2.57827082E-03 -3.02324128E-06
  2.83716888E-06 -1.85268100E-01 -1.06571284E-01 -1.04201433E-01 -6.02947469E-02
 -1.04105302E-01 -6.02368508E-02  7.55498790E-06 -1.78550664E-05 -1.03381138E-04
  2.71038654E-05  1.66931047E-01 -2.48115371E-05 -5.21015576E-05  1.78246842E-05
  9.73247784E-02  1.42577020E-06  2.96068972E-06 -1.33183092E-06 -5.46326908E-06
  5.16315997E-03  1.25870576E-02 -1.02482177E-05  2.00649527E-05  6.86508337E-05
  5.32249106E-05  4.02687385E-01  3.68293669E-05  2.02735473E-05  3.61722155E-05
  1.63090218E-01  3.83866729E-06 -4.00160161E-06  8.26389465E-07 -7.44686358E-06
  4.77085234E-03  9.94311208E-03  8.83818443E-06 -1.38956180E-05 -2.71411461E-05
  1.17226812E-04  3.23088414E-01 -4.15319645E-05 -1.50296451E-05  7.17357353E-05
  2.03922791E-01  1.44495523E-06  6.42738396E-06  7.68071397E-07 -3.88084786E-06
 -1.46607348E-02  1.13622292E-02  5.10086044E-05  3.20023869E-05 -1.66746315E-01
 -1.10155487E-01  1.66782427E-01  1.10176908E-01  2.01656730E-02 -4.08966174E-02
  2.13592772E-01  1.22173403E-01  2.62734192E-05 -9.06054465E-02  1.10782000E-01
  6.32005498E-02  1.53356606E-05 -1.05440756E-02  1.30996442E-02  7.81283763E-04
  1.35777007E-02  1.06190993E-07  1.56486010E-06 -1.71445411E-02  2.52065673E-02
 -3.24789241E-01  1.34672718E-01  5.67526623E-05  6.86877456E-02 -1.04136529E-01
  3.73973119E-02  2.96844259E-05 -1.60513874E-02  1.36489895E-03  9.14811431E-03
  2.91038133E-02  7.52648900E-07  5.21857142E-07 -4.65322203E-02  6.34636021E-02
  3.62566574E-01 -3.31302882E-01  7.55041485E-05  2.42184204E-01  2.15852100E-01
 -1.96763286E-01  4.71985863E-05 -2.41481976E-02 -2.13366644E-02 -1.14595094E-02
  1.20796688E-02 -3.05235610E-06  2.45323629E-06 -7.93000077E-02 -5.05193816E-02
  5.83488931E-02  3.99066267E-02  5.83974991E-02  3.99387522E-02 -7.15060630E-02
  1.45692797E-01  1.61966188E-01 -3.27465459E-01  1.64904203E-05  3.54332509E-01
  8.59067047E-02 -1.83861334E-01  9.29024595E-06 -5.98146095E-03 -2.77898830E-02
 -1.06064921E-03  1.38864311E-02 -6.84834361E-07  1.48098377E-06  1.23190835E-02
 -2.95196889E-02  4.62725808E-02  6.65397658E-02 -3.10254919E-06 -2.92377221E-02
  1.08791443E-01  2.69106954E-02  1.54966021E-06  2.62554986E-03 -1.90505011E-03
  3.20807175E-03  1.60773798E-02 -8.42623981E-07 -6.38660795E-07  2.97396254E-03
 -1.47838237E-03  3.65090890E-01  3.32764081E-01 -1.23013030E-06 -4.23425216E-02
  2.58045339E-01  2.18658392E-01 -4.50536452E-07 -1.48757720E-02  1.71641949E-02
  2.59405267E-03  2.54262638E-04 -4.68092451E-07 -5.38014752E-07 -1.63459604E-01
 -1.23247071E-01  8.41079064E-03  1.57293937E-02  8.40594171E-03  1.57234114E-02
 -2.76838457E-05  5.51215492E-05 -9.55436019E-05 -3.25824575E-04 -2.73433560E-01
  1.04939077E-04 -6.20797674E-05 -2.36495153E-04 -2.06432206E-01  4.87503350E-06
 -2.39552798E-05  4.09397581E-06 -3.55737290E-06 -6.30076210E-04 -1.92120572E-02
 -3.34425344E-06  2.07587262E-06  8.67388533E-05  1.46694743E-04 -1.81246699E-01
  1.89276878E-05  1.10031040E-05 -1.67351945E-06  3.08479019E-04 -2.62456375E-05
  1.48389956E-05  1.34514963E-05 -6.02582337E-06  2.74309079E-02 -1.83050731E-02
  2.02998838E-06 -3.89254126E-06 -1.24483074E-04 -2.65361236E-04  5.61226749E-01
 -1.97029481E-05 -8.82918568E-05 -1.93843106E-04  3.99664511E-01  6.10653842E-06
 -5.40213760E-06  5.79054335E-07  4.42343441E-06 -1.16634933E-02  9.46216854E-03
 -3.68764290E-05 -1.56433309E-05  1.11742992E-01  1.36078603E-01 -1.11598836E-01
 -1.35921026E-01  3.59719357E-02 -7.08676228E-02  1.29286033E-01  4.19434520E-01
 -2.55595596E-04 -1.38194236E-01  8.37164029E-02  3.05204985E-01 -1.90132049E-04
 -6.01765646E-03  3.00588976E-02 -3.54153989E-03  4.67769934E-03 -4.74211246E-07
 -1.77025839E-05  6.03558011E-03 -3.11830259E-03 -1.12912330E-01 -2.09766883E-01
 -1.27421971E-04 -5.16764661E-02 -1.82125469E-02 -1.15323306E-02 -1.47884349E-05
  3.42926365E-02 -2.10806777E-02 -1.78112344E-02  9.50266422E-03  2.14767779E-05
 -1.07614285E-05 -3.19508511E-03  7.11882862E-03  1.52058187E-01  3.72553885E-01
  3.87573817E-04  2.73895396E-02  1.08079777E-01  2.73681560E-01  2.77653220E-04
 -6.94448428E-03  8.24789826E-03 -1.79883303E-03 -6.69036625E-03 -8.05848737E-06
  6.39377874E-06  4.99901579E-02  2.00097190E-02 -1.04822094E-01 -1.13638063E-01
 -1.04977231E-01 -1.13826572E-01 -1.67844625E-07  1.32916151E-06  6.10498033E-06
  4.46857523E-05  5.65785730E-01  1.11622369E-06  2.99257370E-06  3.56911607E-05
  4.32773452E-01  2.30519134E-07  3.27884525E-06 -2.44942687E-06 -1.81337884E-07
 -6.74675764E-03  2.23448167E-02  8.64355528E-07  3.48204617E-06 -2.83546818E-06
 -1.68213334E-05 -2.07819830E-01 -3.34788600E-05 -2.88635484E-06 -1.33490007E-05
  7.98945313E-03  1.34845241E-06 -3.18770512E-06 -3.02790919E-07  6.02390297E-07
 -1.37668380E-02 -3.63934743E-02 -7.11166080E-07  1.54896927E-06 -3.59564273E-07
  1.63048746E-05  1.61809622E-01  4.51435950E-06 -9.60920678E-07  1.42604575E-05
  1.16293799E-01  1.94935037E-07  1.64010761E-07 -2.24316737E-07 -6.62882747E-07
 -1.61313551E-03 -3.16255493E-03  1.83317364E-06 -3.21860081E-06  1.68191216E-01
  2.25337379E-01 -1.68217160E-01 -2.25368833E-01  8.32628725E-02 -1.08268037E-01
  1.94013359E-01 -2.01282622E-01  2.20288276E-05 -1.02297382E+00  3.25120404E-01
 -3.35881118E-01  3.18839479E-05  3.46040642E-02  1.97002575E-02  4.46927265E-02
  9.29785414E-03 -1.74710157E-06  1.32140678E-06  3.33297225E-02 -4.07814225E-02
 -8.31468929E-02 -1.96530382E-01 -3.45083644E-05 -6.08373674E-01 -1.82161788E-01
 -3.70053348E-01 -3.60803352E-05 -2.78862623E-03  6.26959758E-03  9.11262742E-03
 -8.30795317E-03  1.06459526E-06  1.14654036E-06  2.08776024E-04 -3.40538028E-02
  5.70468850E-02  7.83945894E-02  9.56209763E-06  7.86723749E-02  4.76911450E-02
  9.40676958E-02  1.12049021E-05 -1.36312744E-02 -1.69268753E-02 -1.16090891E-02
  3.97671743E-03  5.14506218E-07 -5.73469768E-08  1.23698390E-01  1.32055701E+00
  3.67295536E-03  4.89858742E-01  3.68818430E-03  4.89900936E-01  3.65283765E-02
 -2.50998365E-02  6.21613040E-04 -2.03884659E-01 -2.18984040E-05 -5.79247565E-01
  2.39212036E-03 -3.82144425E-01 -4.01076942E-05  1.86476745E-02  2.14020574E-02
  1.98248362E-02  1.00225044E-02  4.47043742E-06 -1.70504112E-07 -9.10387152E-02
  1.29289860E-01 -2.30491338E-01  2.62611753E-01  1.46099681E-04  1.58573838E+00
 -6.52707639E-01  7.00729260E-01  2.39562137E-04 -7.74126693E-03 -3.55575999E-03
 -1.85213690E-02 -1.70300245E-02  2.41031712E-06 -4.25019869E-06 -3.58606678E-02
  4.21326647E-02 -5.71430234E-02  8.21401422E-02 -4.05380980E-05  3.90581731E-01
 -1.28853913E-01  1.00700938E-01 -5.54317961E-05 -9.13200390E-03 -1.32560147E-02
 -2.31929898E-02 -7.30465268E-03 -2.41311365E-06  2.51915688E-07  7.69174409E-03
  3.41338810E-01 -5.60262683E-02 -1.18070422E+00 -5.60708479E-02 -1.18122329E+00
  1.82667814E-02 -3.81940096E-02  1.17289866E-01  5.22498452E-02 -7.39236960E-05
 -1.13349766E-01  1.93248008E-01  7.41027476E-02 -1.60984884E-04  1.81786401E-02
 -7.24820364E-03  7.21252789E-04  3.50725601E-04  1.31441015E-05 -1.22519721E-06
 -1.02043312E-01  1.99200231E-01  3.68313048E-01 -3.79939193E-02  4.07480694E-04
  1.22027595E+00  9.78295748E-01  2.74595519E-03  8.92965404E-04 -1.04008482E-02
  1.75883123E-03  1.01002688E-02  2.82935388E-02 -4.03437524E-06 -5.59815385E-06
  7.80095998E-02 -7.41202690E-02  2.15432667E-01 -2.28941443E-01 -7.43208289E-05
 -8.78916904E-01  3.32707681E-01 -3.49064382E-01 -1.18176317E-04  3.98545996E-02
  4.54696356E-02  4.22640840E-02  5.46370157E-03 -8.31938770E-06  7.31589398E-07
  1.23851915E-01  6.10079639E-01 -1.70328060E-02 -6.89751177E-01 -1.71173023E-02
 -6.91823773E-01 -2.55219031E-05  3.79306146E-05 -3.56421786E-05  1.03023297E-05
 -9.07125150E-02  2.68314792E-04 -3.03803846E-05  4.53095266E-05 -2.14923637E-01
 -1.93786636E-05 -7.83296505E-08 -6.75470436E-06 -6.93279564E-07  1.73619919E-02
 -2.74396715E-03  1.11133449E-04 -2.00118915E-04 -1.99802022E-04  1.17269209E-05
  5.31288625E-01 -1.73417488E-03 -5.26334995E-04 -1.11338121E-04  1.26082483E+00
  1.18802492E-05  4.53018404E-06 -1.03842606E-05 -1.50381016E-05 -5.48903127E-05
 -7.73993501E-03 -5.25261810E-05  3.69866697E-05 -1.63250620E-04  1.40002643E-04
 -1.05219050E-01  6.22398811E-04 -2.49087809E-04  2.27831449E-04 -1.74547099E-01
 -3.33086733E-05 -3.53732774E-05 -3.31425851E-05 -1.39351334E-06 -1.04778605E-02
  3.73942575E-04 -8.37999421E-05 -4.02788398E-04  4.55808101E-02  1.52982726E+00
 -4.55878106E-02 -1.52786469E+00  7.15277351E-02 -1.02375776E-01 -3.71302750E-01
 -1.16253788E-01 -4.60268464E-06 -9.34749693E-01 -8.95587166E-01 -2.48706329E-01
 -1.77043407E-05  2.41936212E-02  1.04860519E-02  3.21049928E-02 -6.26322516E-03
  2.96351180E-06  6.75602539E-07 -1.08612089E-01  2.01365380E-01 -1.83930963E-01
 -3.31207494E-01  8.10887889E-05  1.27964952E+00 -5.45917452E-01 -1.24773361E+00
  2.25838438E-04 -7.19943368E-03 -2.04373841E-02  4.77924482E-02 -1.75553169E-02
  1.60081134E-06  3.78367642E-06  4.61442031E-02 -1.23936150E-02  1.89621737E-01
  2.10576771E-02 -1.11538863E-05 -6.03950494E-01  3.71854817E-01  1.94454888E-02
 -2.12853719E-05  2.97081128E-02  2.85113629E-02  5.14048106E-02 -3.96678819E-03
 -1.48179824E-06  8.83488027E-07 -3.77075237E-02 -5.64497495E-01  5.86929549E-02
  6.41317784E-02  5.86992147E-02  6.36561344E-02 -4.32355091E-03 -1.13413434E-01
 -2.14699299E-01 -1.83371141E-01  2.13545487E-05  8.83297459E-01  3.90655543E-01
  5.40464865E-02  7.74966620E-06  8.50170951E-02 -4.57959246E-02 -8.19892576E-02
  7.90654989E-02 -5.85977131E-06 -1.92754905E-06 -3.66545859E-02  5.07649105E-01
 -2.07172611E-01 -8.50444778E-01  1.98005910E-05 -7.85012224E-01  4.05660752E-01
  1.67495341E+00 -1.56892511E-04 -7.97630584E-02  1.14488904E-02  2.36146225E-03
 -8.77345881E-03  1.55788827E-06  4.95286619E-06 -1.31644893E-02 -1.15164195E-01
  1.33945237E-01 -1.32155446E-01  1.51363608E-05  6.18133413E-01 -2.27964752E-01