37
clopidogrel, conf. 0, energy: -61.266811591674 Eh
C           -3.02365   2.11453   2.41968
O           -2.41896   1.63682   1.21743
C           -1.21259   1.00891   1.41027
C           -0.67452   0.50091   0.03946
N            0.74207  -0.00204   0.08137
C            1.20082  -0.44641  -1.26259
C            2.57136  -1.15684  -1.21657
C            3.51216  -0.35485  -0.38839
C            3.09942   0.63924   0.47247
C            1.65658   1.04547   0.61444
C            4.21632   1.21185   1.15797
C            5.41042   0.62902   0.78821
S            5.19027  -0.60081  -0.38313
C           -1.66549  -0.50960  -0.54925
C           -2.33257  -0.17084  -1.74609
C           -3.25091  -1.04327  -2.33302
C           -3.52325  -2.26971  -1.73709
C           -2.87760  -2.62253  -0.55319
C           -1.95538  -1.75256   0.04092
Cl          -1.21145  -2.28768   1.50365
O           -0.66814   0.91902   2.50275
H           -3.99128   2.55290   2.16012
H           -2.40295   2.89197   2.87616
H           -3.19401   1.29005   3.11935
H           -0.66571   1.39523  -0.60199
H            0.50467  -1.16520  -1.70717
H            1.24980   0.41455  -1.94368
H            2.95003  -1.28586  -2.23658
H            2.45419  -2.15197  -0.76999
H            1.47679   1.22005   1.67789
H            1.51309   1.99394   0.08089
H            4.14760   2.00834   1.88889
H            6.40221   0.86232   1.14979
H           -2.14041   0.78392  -2.23285
H           -3.75443  -0.76364  -3.25559
H           -4.23771  -2.95162  -2.19118
H           -3.09680  -3.58362  -0.09334
37
clopidogrel, conf. 1, energy: -61.270523020326 Eh
C           -2.36962  -3.14947  -0.08382
O           -1.86677  -1.81543  -0.14078
C           -1.11382  -1.45271   0.93724
C           -0.55209  -0.01554   0.81155
N            0.67148   0.03083  -0.06616
C            1.36131   1.34408   0.08219
C            2.48466   1.52955  -0.96144
C            3.30484   0.28640  -1.02776
C            2.90333  -0.91646  -0.48425
C            1.61354  -1.07044   0.27537
C            3.87973  -1.93303  -0.72290
C            4.96202  -1.45914  -1.43458
S            4.80654   0.20412  -1.81230
C           -1.66182   0.94440   0.36486
C           -1.86766   1.20637  -1.00627
C           -2.88824   2.05599  -1.43685
C           -3.73488   2.65161  -0.50827
C           -3.56572   2.38965   0.85009
C           -2.54367   1.53787   1.28525
Cl          -2.43286   1.24704   2.98522
O           -0.84581  -2.20112   1.87388
H           -3.01156  -3.28122   0.79282
H           -2.96975  -3.32404  -0.98106
H           -1.54489  -3.86886  -0.07340
H           -0.22539   0.26751   1.82051
H            0.66450   2.17948  -0.04726
H            1.77736   1.43599   1.09536
H            3.09812   2.39548  -0.68885
H            2.04179   1.72293  -1.94624
H            1.83647  -1.08101   1.34999
H            1.17894  -2.03690  -0.00408
H            3.79452  -2.96020  -0.38944
H            5.83808  -2.00742  -1.75212
H           -1.22700   0.73770  -1.75302
H           -3.02302   2.24544  -2.49915
H           -4.53192   3.31150  -0.84128
H           -4.24076   2.84904   1.56839
37
clopidogrel, conf. 2, energy: -61.268679432880 Eh
C           -2.85319  -3.19966  -0.97338
O           -1.80102  -2.23638  -0.98237
C           -1.63374  -1.57005   0.19416
C           -0.53664  -0.47456   0.14085
N            0.46730  -0.66053  -0.95916
C            1.23316  -1.93335  -0.83471
C            2.16791  -2.04408   0.39579
C            2.79650  -0.71665   0.67182
C            2.44056   0.44872   0.02205
C            1.42363   0.46629  -1.08376
C            3.17354   1.56336   0.53140
C            4.04446   1.19665   1.53594
S            3.97882  -0.48282   1.86601
C           -1.20167   0.90481   0.18207
C           -0.98744   1.70327   1.32722
C           -1.56282   2.96933   1.44776
C           -2.36537   3.46659   0.42794
C           -2.58887   2.69754  -0.71256
C           -2.01370   1.42640  -0.84017
Cl          -2.33729   0.57862  -2.30845
O           -2.29941  -1.79579   1.20319
H           -2.64166  -3.99047  -0.24705
H           -3.81255  -2.71923  -0.75708
H           -2.90895  -3.64966  -1.96839
H           -0.00368  -0.60699   1.09172
H            1.84454  -2.03634  -1.74264
H            0.57105  -2.80490  -0.85414
H            1.58728  -2.35972   1.27087
H            2.93227  -2.80620   0.20687
H            0.92308   1.43769  -1.14161
H            1.95559   0.36271  -2.03910
H            3.07138   2.58255   0.17825
H            4.71846   1.83227   2.09357
H           -0.36354   1.33915   2.14299
H           -1.38513   3.56380   2.34085
H           -2.81730   4.45097   0.51861
H           -3.21554   3.09666  -1.50694
37
clopidogrel, conf. 3, energy: -61.266797716181 Eh
C           -2.94248   3.22553  -0.79865
O           -2.31523   1.96714  -1.04812
C           -1.19618   1.74019  -0.28450
C           -0.62685   0.32915  -0.61772
N            0.73100   0.05712  -0.03129
C            1.22743  -1.29170  -0.41611
C            2.52081  -1.68341   0.33124
C            3.48080  -0.54786   0.27763
C            3.11061   0.73717  -0.05618
C            1.70464   1.10271  -0.45161
C            4.23358   1.62055   0.00707
C            5.38954   0.96901   0.38329
S            5.12666  -0.70089   0.65738
C           -1.67163  -0.73422  -0.26133
C           -2.23408  -1.49459  -1.30905
C           -3.19420  -2.47558  -1.05477
C           -3.61332  -2.71629   0.24905
C           -3.07265  -1.97468   1.29810
C           -2.10963  -0.98906   1.05030
Cl          -1.50555  -0.12948   2.41988
O           -0.73632   2.56289   0.49639
H           -3.83383   3.28992  -1.42877
H           -2.27024   4.04711  -1.06469
H           -3.25336   3.29961   0.24820
H           -0.49450   0.33611  -1.71036
H            1.39703  -1.33138  -1.50112
H            0.49558  -2.07088  -0.17909
H            2.94584  -2.58543  -0.12299
H            2.28568  -1.90960   1.37860
H            1.47872   2.06140   0.02177
H            1.67970   1.24153  -1.54025
H            4.19524   2.68143  -0.20844
H            6.37614   1.39133   0.51372
H           -1.92625  -1.32534  -2.33955
H           -3.61554  -3.05076  -1.87597
H           -4.36078  -3.47933   0.45112
H           -3.40638  -2.16943   2.31486
37
clopidogrel, conf. 4, energy: -61.272837688782 Eh
C           -2.18095  -3.40381   0.73664
O           -1.38538  -2.27730   1.10587
C           -1.62493  -1.15941   0.35329
C           -0.71813   0.00389   0.82449
N            0.58992   0.00742   0.09370
C            0.46443  -0.22854  -1.36723
C            1.77777   0.11308  -2.10761
C            2.93479  -0.45505  -1.35186
C            2.84419  -0.91861  -0.05384
C            1.54413  -0.94521   0.70283
C            4.11580  -1.37321   0.41417
C            5.10264  -1.23072  -0.53887
S            4.50225  -0.55482  -1.99351
C           -1.44972   1.35679   0.81211
C           -0.94537   2.46556   0.10230
C           -1.61171   3.69465   0.09338
C           -2.79256   3.85365   0.80787
C           -3.29793   2.78694   1.54540
C           -2.63143   1.55473   1.55778
Cl          -3.30632   0.32341   2.57144
O           -2.41330  -1.11318  -0.58457
H           -3.24561  -3.17632   0.84951
H           -1.93087  -4.22954   1.40842
H           -1.95508  -3.71140  -0.28912
H           -0.49778  -0.15667   1.89005
H           -0.33240   0.38477  -1.80313
H            0.20736  -1.27811  -1.56516
H            1.73749  -0.28434  -3.12784
H            1.89006   1.20245  -2.17085
H            1.15694  -1.97055   0.69106
H            1.73756  -0.66062   1.74399
H            4.30007  -1.78462   1.39907
H            6.14883  -1.48998  -0.45379
H           -0.01237   2.39449  -0.45248
H           -1.20002   4.52829  -0.47082
H           -3.31114   4.80867   0.80199
H           -4.21122   2.92320   2.11969
37
clopidogrel, conf. 5, energy: -61.273281213938 Eh
C            1.32563   3.15106   2.07812
O            0.75235   1.90289   1.69056
C            1.01099   1.54790   0.39414
C            0.37426   0.16361   0.09068
N           -0.04735   0.04828  -1.34904
C           -0.67235  -1.26552  -1.66503
C           -2.01217  -1.56212  -0.95108
C           -2.83220  -0.31425  -0.89333
C           -2.35219   0.93464  -1.23646
C           -0.96126   1.14151  -1.76826
C           -3.35004   1.93734  -1.03788
C           -4.52871   1.40922  -0.55417
S           -4.43594  -0.28740  -0.34014
C            1.39737  -0.90370   0.48712
C            2.54100  -1.09356  -0.31833
C            3.51302  -2.03752   0.01521
C            3.36815  -2.80581   1.16514
C            2.25342  -2.62530   1.98268
C            1.27593  -1.67886   1.65228
Cl          -0.05739  -1.51911   2.73923
O            1.67008   2.22647  -0.38660
H            0.91895   3.96502   1.46989
H            1.06171   3.33509   3.12319
H            2.41653   3.11332   1.99821
H           -0.52542   0.09682   0.70897
H            0.02541  -2.09016  -1.48064
H           -0.84477  -1.29307  -2.75054
H           -1.81950  -1.91798   0.06724
H           -2.54454  -2.35487  -1.48857
H           -0.58883   2.13127  -1.48840
H           -1.01047   1.14668  -2.86518
H           -3.21438   2.99276  -1.24170
H           -5.44245   1.93585  -0.31559
H            2.67434  -0.49610  -1.22095
H            4.38333  -2.16791  -0.62359
H            4.12428  -3.54093   1.42875
H            2.15322  -3.22554   2.88405
37
clopidogrel, conf. 6, energy: -61.271402885312 Eh
C           -1.90893   3.69597   0.61902
O           -1.52612   2.53241  -0.11486
C           -1.30218   1.43086   0.66841
C           -0.89591   0.22899  -0.22326
N            0.57672  -0.06487  -0.12212
C            0.97815  -1.06013  -1.15492
C            2.42343  -1.56300  -0.94636
C            3.31614  -0.39935  -0.67842
C            2.84764   0.85451  -0.34393
C            1.38009   1.17654  -0.27265
C            3.93204   1.75800  -0.11669
C            5.15946   1.15153  -0.28432
S            5.00909  -0.49880  -0.71655
C           -1.77279  -0.96672   0.15953
C           -1.40270  -1.79329   1.24101
C           -2.19428  -2.87538   1.62937
C           -3.38004  -3.14646   0.95514
C           -3.77836  -2.32841  -0.10076
C           -2.98739  -1.24180  -0.49207
Cl          -3.58021  -0.26317  -1.78772
O           -1.38009   1.42935   1.89119
H           -2.83755   3.51517   1.16939
H           -1.10657   4.00057   1.29818
H           -2.08275   4.50492  -0.09586
H           -1.09041   0.50802  -1.26597
H            0.32799  -1.94181  -1.13430
H            0.87989  -0.61931  -2.15690
H            2.74957  -2.11737  -1.83337
H            2.45365  -2.24594  -0.08843
H            1.09658   1.72084  -1.18266
H            1.22372   1.83361   0.59038
H            3.82004   2.80002   0.15706
H            6.13905   1.59542  -0.17342
H           -0.48692  -1.58684   1.79520
H           -1.88545  -3.49904   2.46492
H           -3.99987  -3.98620   1.25873
H           -4.71474  -2.53884  -0.61198
