40
spiro_mol, conf. 0, Energy: -60.170032727877 EH
O           -3.41876  -2.68905  -0.55305
C           -3.33192  -1.49522  -0.28057
C           -4.14690  -0.51550  -1.03527
C           -3.99012   0.79515  -0.81405
C           -2.97213   1.36854   0.12946
C           -1.83603   0.38105   0.51638
C           -0.77298   0.20399  -0.63444
N            0.48915   0.97642  -0.51743
C            1.54536   0.18661   0.15307
C            2.20857  -0.82166  -0.80094
C            3.30762  -1.57987  -0.11066
C            4.41436  -2.20159  -0.92165
C            4.70253  -1.01521  -0.04324
C            0.22157   2.21582   0.25256
C           -0.46471   2.01632   1.62063
F           -1.30064   3.04982   1.88317
F            0.46505   1.99827   2.60697
O           -1.21515   0.81310   1.74193
C           -2.46720  -0.98358   0.84627
H           -4.87251  -0.91439  -1.73448
H           -4.62525   1.50080  -1.34564
H           -2.55250   2.26974  -0.32949
H           -3.49327   1.71107   1.03287
H           -0.54619  -0.85931  -0.77283
H           -1.23320   0.49751  -1.58680
H            2.33785   0.86138   0.50372
H            1.16250  -0.32683   1.04441
H            2.60141  -0.29123  -1.67779
H            1.47843  -1.54943  -1.17045
H            2.94396  -2.14403   0.74187
H            4.79116  -3.16891  -0.60848
H            4.42236  -2.05153  -1.99543
H            4.90623  -0.06622  -0.52645
H            5.27430  -1.18178   0.86285
H            1.14638   2.79124   0.38467
H           -0.41055   2.85893  -0.37185
H           -1.68290  -1.72009   1.06055
H           -3.08589  -0.92035   1.75049




















