radical_cation                                                          
SP        UB3LYP                                                      6-31G(d)            
Number of atoms                            I               17
Info1-9                                    I   N=           9
          26          26           0           0           0         110
           1          18        -502
Full Title                                 C   N=           2
radical_cation          
Route                                      C   N=           2
# b3lyp/6-31G*          
Charge                                     I                1
Multiplicity                               I                2
Number of electrons                        I               75
Number of alpha electrons                  I               38
Number of beta electrons                   I               37
Number of basis functions                  I              155
Number of independent functions            I              155
Number of point charges in /Mol/           I                0
Number of translation vectors              I                0
Atomic numbers                             I   N=          17
          16           6           7           6           8           6
           6           7           6           1           1           1
           1           1           1           1           1
Nuclear charges                            R   N=          17
  1.60000000E+01  6.00000000E+00  7.00000000E+00  6.00000000E+00  8.00000000E+00
  6.00000000E+00  6.00000000E+00  7.00000000E+00  6.00000000E+00  1.00000000E+00
  1.00000000E+00  1.00000000E+00  1.00000000E+00  1.00000000E+00  1.00000000E+00
  1.00000000E+00  1.00000000E+00
Current cartesian coordinates              R   N=          51
 -4.04922760E+00 -2.83490926E+00  1.82674937E-02 -1.68505407E+00 -7.97373046E-01
 -7.38594650E-02  8.70043463E-01 -1.47182135E+00 -3.29609600E-01  2.31035037E+00
  6.73828773E-01 -3.39227138E-01  4.86413458E+00  6.94966356E-01 -6.07646203E-01
  6.11723833E+00 -1.29109695E+00  7.02605096E-01  7.93609999E-01  2.69120642E+00
 -1.25540956E-01 -1.68107699E+00  1.86799658E+00  6.11676924E-02 -3.81348316E+00
  3.55712054E+00  3.10856354E-01  1.48882494E+00 -3.26021764E+00 -5.30166390E-01
  5.78739697E+00 -3.10948393E+00 -2.27105028E-01  8.14836934E+00 -9.08955608E-01
  6.48287920E-01  5.53011303E+00 -1.37074970E+00  2.68642594E+00  1.30120698E+00
  4.66484270E+00 -9.74610246E-02 -3.55568325E+00  4.71780408E+00  2.00220135E+00
 -3.89858472E+00  4.77683543E+00 -1.35621761E+00 -5.58581239E+00  2.51340102E+00
  4.73014572E-01
Number of symbols in /Mol/                 I                0
Int Atom Types                             I   N=          17
           0           0           0           0           0           0
           0           0           0           0           0           0
           0           0           0           0           0
Force Field                                I                0
Atom Types                                 C   N=          17
                                                            
                                                            
                                                            
                        
MM charges                                 R   N=          17
  0.00000000E+00  0.00000000E+00  0.00000000E+00  0.00000000E+00  0.00000000E+00
  0.00000000E+00  0.00000000E+00  0.00000000E+00  0.00000000E+00  0.00000000E+00
  0.00000000E+00  0.00000000E+00  0.00000000E+00  0.00000000E+00  0.00000000E+00
  0.00000000E+00  0.00000000E+00
Integer atomic weights                     I   N=          17
          32          12          14          12          16          12
          12          14          12           1           1           1
           1           1           1           1           1
Real atomic weights                        R   N=          17
  3.19720718E+01  1.20000000E+01  1.40030740E+01  1.20000000E+01  1.59949146E+01
  1.20000000E+01  1.20000000E+01  1.40030740E+01  1.20000000E+01  1.00782504E+00
  1.00782504E+00  1.00782504E+00  1.00782504E+00  1.00782504E+00  1.00782504E+00
  1.00782504E+00  1.00782504E+00
Atom fragment info                         I   N=          17
           0           0           0           0           0           0
           0           0           0           0           0           0
           0           0           0           0           0
Atom residue num                           I   N=          17
           0           0           0           0           0           0
           0           0           0           0           0           0
           0           0           0           0           0
Nuclear spins                              I   N=          17
           0           0           2           0           0           0
           0           2           0           1           1           1
           1           1           1           1           1
Nuclear ZEff                               R   N=          17
 -1.36000000E+01 -3.60000000E+00 -4.55000000E+00 -3.60000000E+00 -5.60000000E+00
 -3.60000000E+00 -3.60000000E+00 -4.55000000E+00 -3.60000000E+00 -1.00000000E+00
 -1.00000000E+00 -1.00000000E+00 -1.00000000E+00 -1.00000000E+00 -1.00000000E+00
 -1.00000000E+00 -1.00000000E+00
Nuclear ZNuc                               R   N=          17
  1.60000000E+01  6.00000000E+00  7.00000000E+00  6.00000000E+00  8.00000000E+00
  6.00000000E+00  6.00000000E+00  7.00000000E+00  6.00000000E+00  1.00000000E+00
  1.00000000E+00  1.00000000E+00  1.00000000E+00  1.00000000E+00  1.00000000E+00
  1.00000000E+00  1.00000000E+00
Nuclear QMom                               R   N=          17
  0.00000000E+00  0.00000000E+00  2.04400000E+00  0.00000000E+00  0.00000000E+00
  0.00000000E+00  0.00000000E+00  2.04400000E+00  0.00000000E+00  0.00000000E+00
  0.00000000E+00  0.00000000E+00  0.00000000E+00  0.00000000E+00  0.00000000E+00
  0.00000000E+00  0.00000000E+00
Nuclear GFac                               R   N=          17
  0.00000000E+00  0.00000000E+00  4.03761000E-01  0.00000000E+00  0.00000000E+00
  0.00000000E+00  0.00000000E+00  4.03761000E-01  0.00000000E+00  2.79284600E+00
  2.79284600E+00  2.79284600E+00  2.79284600E+00  2.79284600E+00  2.79284600E+00
  2.79284600E+00  2.79284600E+00
MicOpt                                     I   N=          17
          -1          -1          -1          -1          -1          -1
          -1          -1          -1          -1          -1          -1
          -1          -1          -1          -1          -1
Number of residues                         I                0
Number of secondary structures             I                0
SymInf integers                            I   N=          26
           1           1           1           1           1           0
           0           0           0           0           0           0
           0           0           0           0           0           0
           0           0           0           0           0           0
           0           0
RotTr to input orientation                 R   N=          12
  9.03205114E-01  1.14244164E-01 -4.13725505E-01 -4.20245150E-01  4.31361333E-01
 -7.98324129E-01  8.72613123E-02  8.94916572E-01  4.37618318E-01 -4.29405451E-01
 -5.38266108E-01  7.54065372E-01
Number of contracted shells                I               53
Number of primitive shells                 I              137
Pure/Cartesian d shells                    I                1
Pure/Cartesian f shells                    I                0
Highest angular momentum                   I                2
Largest degree of contraction              I                6
Shell types                                I   N=          53
           0          -1          -1          -1           2           0
          -1          -1           2           0          -1          -1
           2           0          -1          -1           2           0
          -1          -1           2           0          -1          -1
           2           0          -1          -1           2           0
          -1          -1           2           0          -1          -1
           2           0           0           0           0           0
           0           0           0           0           0           0
           0           0           0           0           0
Number of primitives per shell             I   N=          53
           6           6           3           1           1           6
           3           1           1           6           3           1
           1           6           3           1           1           6
           3           1           1           6           3           1
           1           6           3           1           1           6
           3           1           1           6           3           1
           1           3           1           3           1           3
           1           3           1           3           1           3
           1           3           1           3           1
Shell to atom map                          I   N=          53
           1           1           1           1           1           2
           2           2           2           3           3           3
           3           4           4           4           4           5
           5           5           5           6           6           6
           6           7           7           7           7           8
           8           8           8           9           9           9
           9          10          10          11          11          12
          12          13          13          14          14          15
          15          16          16          17          17
Primitive exponents                        R   N=         137
  2.19171000E+04  3.30149000E+03  7.54146000E+02  2.12711000E+02  6.79896000E+01
  2.30515000E+01  4.23735000E+02  1.00710000E+02  3.21599000E+01  1.18079000E+01
  4.63110000E+00  1.87025000E+00  2.61584000E+00  9.22167000E-01  3.41287000E-01
  1.17167000E-01  6.50000000E-01  3.04752488E+03  4.57369518E+02  1.03948685E+02
  2.92101553E+01  9.28666296E+00  3.16392696E+00  7.86827235E+00  1.88128854E+00
  5.44249258E-01  1.68714478E-01  8.00000000E-01  4.17351146E+03  6.27457911E+02
  1.42902093E+02  4.02343293E+01  1.28202129E+01  4.39043701E+00  1.16263619E+01
  2.71627981E+00  7.72218397E-01  2.12031498E-01  8.00000000E-01  3.04752488E+03
  4.57369518E+02  1.03948685E+02  2.92101553E+01  9.28666296E+00  3.16392696E+00
  7.86827235E+00  1.88128854E+00  5.44249258E-01  1.68714478E-01  8.00000000E-01
  5.48467166E+03  8.25234946E+02  1.88046958E+02  5.29645000E+01  1.68975704E+01
  5.79963534E+00  1.55396162E+01  3.59993359E+00  1.01376175E+00  2.70005823E-01
  8.00000000E-01  3.04752488E+03  4.57369518E+02  1.03948685E+02  2.92101553E+01
  9.28666296E+00  3.16392696E+00  7.86827235E+00  1.88128854E+00  5.44249258E-01
  1.68714478E-01  8.00000000E-01  3.04752488E+03  4.57369518E+02  1.03948685E+02
  2.92101553E+01  9.28666296E+00  3.16392696E+00  7.86827235E+00  1.88128854E+00
  5.44249258E-01  1.68714478E-01  8.00000000E-01  4.17351146E+03  6.27457911E+02
  1.42902093E+02  4.02343293E+01  1.28202129E+01  4.39043701E+00  1.16263619E+01
  2.71627981E+00  7.72218397E-01  2.12031498E-01  8.00000000E-01  3.04752488E+03
  4.57369518E+02  1.03948685E+02  2.92101553E+01  9.28666296E+00  3.16392696E+00
  7.86827235E+00  1.88128854E+00  5.44249258E-01  1.68714478E-01  8.00000000E-01
  1.87311370E+01  2.82539436E+00  6.40121692E-01  1.61277759E-01  1.87311370E+01
  2.82539436E+00  6.40121692E-01  1.61277759E-01  1.87311370E+01  2.82539436E+00
  6.40121692E-01  1.61277759E-01  1.87311370E+01  2.82539436E+00  6.40121692E-01
  1.61277759E-01  1.87311370E+01  2.82539436E+00  6.40121692E-01  1.61277759E-01
  1.87311370E+01  2.82539436E+00  6.40121692E-01  1.61277759E-01  1.87311370E+01
  2.82539436E+00  6.40121692E-01  1.61277759E-01  1.87311370E+01  2.82539436E+00
  6.40121692E-01  1.61277759E-01
Contraction coefficients                   R   N=         137
  1.86924085E-03  1.42303065E-02  6.96962317E-02  2.38487108E-01  4.83307220E-01
  3.38074154E-01 -2.37677050E-03 -3.16930067E-02 -1.13317024E-01  5.60900118E-02
  5.92255124E-01  4.55006095E-01 -2.50373114E-01  6.69567631E-02  1.05450627E+00
  1.00000000E+00  1.00000000E+00  1.83473713E-03  1.40373228E-02  6.88426223E-02
  2.32184443E-01  4.67941348E-01  3.62311985E-01 -1.19332420E-01 -1.60854152E-01
  1.14345644E+00  1.00000000E+00  1.00000000E+00  1.83477216E-03  1.39946270E-02
  6.85865518E-02  2.32240873E-01  4.69069948E-01  3.60455199E-01 -1.14961182E-01
 -1.69117479E-01  1.14585195E+00  1.00000000E+00  1.00000000E+00  1.83473713E-03
  1.40373228E-02  6.88426223E-02  2.32184443E-01  4.67941348E-01  3.62311985E-01
 -1.19332420E-01 -1.60854152E-01  1.14345644E+00  1.00000000E+00  1.00000000E+00
  1.83107443E-03  1.39501722E-02  6.84450781E-02  2.32714336E-01  4.70192898E-01
  3.58520853E-01 -1.10777550E-01 -1.48026263E-01  1.13076702E+00  1.00000000E+00
  1.00000000E+00  1.83473713E-03  1.40373228E-02  6.88426223E-02  2.32184443E-01
  4.67941348E-01  3.62311985E-01 -1.19332420E-01 -1.60854152E-01  1.14345644E+00
  1.00000000E+00  1.00000000E+00  1.83473713E-03  1.40373228E-02  6.88426223E-02
  2.32184443E-01  4.67941348E-01  3.62311985E-01 -1.19332420E-01 -1.60854152E-01
  1.14345644E+00  1.00000000E+00  1.00000000E+00  1.83477216E-03  1.39946270E-02
  6.85865518E-02  2.32240873E-01  4.69069948E-01  3.60455199E-01 -1.14961182E-01
 -1.69117479E-01  1.14585195E+00  1.00000000E+00  1.00000000E+00  1.83473713E-03
  1.40373228E-02  6.88426223E-02  2.32184443E-01  4.67941348E-01  3.62311985E-01
 -1.19332420E-01 -1.60854152E-01  1.14345644E+00  1.00000000E+00  1.00000000E+00
  3.34946043E-02  2.34726953E-01  8.13757326E-01  1.00000000E+00  3.34946043E-02
  2.34726953E-01  8.13757326E-01  1.00000000E+00  3.34946043E-02  2.34726953E-01
  8.13757326E-01  1.00000000E+00  3.34946043E-02  2.34726953E-01  8.13757326E-01
  1.00000000E+00  3.34946043E-02  2.34726953E-01  8.13757326E-01  1.00000000E+00
  3.34946043E-02  2.34726953E-01  8.13757326E-01  1.00000000E+00  3.34946043E-02
  2.34726953E-01  8.13757326E-01  1.00000000E+00  3.34946043E-02  2.34726953E-01
  8.13757326E-01  1.00000000E+00
P(S=P) Contraction coefficients            R   N=         137
  0.00000000E+00  0.00000000E+00  0.00000000E+00  0.00000000E+00  0.00000000E+00
  0.00000000E+00  4.06100998E-03  3.06812999E-02  1.30451999E-01  3.27204999E-01
  4.52850998E-01  2.56041999E-01 -1.45104895E-02  3.10262776E-01  7.54482456E-01
  1.00000000E+00  0.00000000E+00  0.00000000E+00  0.00000000E+00  0.00000000E+00
  0.00000000E+00  0.00000000E+00  0.00000000E+00  6.89990666E-02  3.16423961E-01
  7.44308291E-01  1.00000000E+00  0.00000000E+00  0.00000000E+00  0.00000000E+00
  0.00000000E+00  0.00000000E+00  0.00000000E+00  0.00000000E+00  6.75797439E-02
  3.23907296E-01  7.40895140E-01  1.00000000E+00  0.00000000E+00  0.00000000E+00
  0.00000000E+00  0.00000000E+00  0.00000000E+00  0.00000000E+00  0.00000000E+00
  6.89990666E-02  3.16423961E-01  7.44308291E-01  1.00000000E+00  0.00000000E+00
  0.00000000E+00  0.00000000E+00  0.00000000E+00  0.00000000E+00  0.00000000E+00
  0.00000000E+00  7.08742682E-02  3.39752839E-01  7.27158577E-01  1.00000000E+00
  0.00000000E+00  0.00000000E+00  0.00000000E+00  0.00000000E+00  0.00000000E+00
  0.00000000E+00  0.00000000E+00  6.89990666E-02  3.16423961E-01  7.44308291E-01
  1.00000000E+00  0.00000000E+00  0.00000000E+00  0.00000000E+00  0.00000000E+00
  0.00000000E+00  0.00000000E+00  0.00000000E+00  6.89990666E-02  3.16423961E-01
  7.44308291E-01  1.00000000E+00  0.00000000E+00  0.00000000E+00  0.00000000E+00
  0.00000000E+00  0.00000000E+00  0.00000000E+00  0.00000000E+00  6.75797439E-02
  3.23907296E-01  7.40895140E-01  1.00000000E+00  0.00000000E+00  0.00000000E+00
  0.00000000E+00  0.00000000E+00  0.00000000E+00  0.00000000E+00  0.00000000E+00
  6.89990666E-02  3.16423961E-01  7.44308291E-01  1.00000000E+00  0.00000000E+00
  0.00000000E+00  0.00000000E+00  0.00000000E+00  0.00000000E+00  0.00000000E+00
  0.00000000E+00  0.00000000E+00  0.00000000E+00  0.00000000E+00  0.00000000E+00
  0.00000000E+00  0.00000000E+00  0.00000000E+00  0.00000000E+00  0.00000000E+00
  0.00000000E+00  0.00000000E+00  0.00000000E+00  0.00000000E+00  0.00000000E+00
  0.00000000E+00  0.00000000E+00  0.00000000E+00  0.00000000E+00  0.00000000E+00
  0.00000000E+00  0.00000000E+00  0.00000000E+00  0.00000000E+00  0.00000000E+00
  0.00000000E+00  0.00000000E+00
Coordinates of each shell                  R   N=         159
 -4.04922760E+00 -2.83490926E+00  1.82674937E-02 -4.04922760E+00 -2.83490926E+00
  1.82674937E-02 -4.04922760E+00 -2.83490926E+00  1.82674937E-02 -4.04922760E+00
 -2.83490926E+00  1.82674937E-02 -4.04922760E+00 -2.83490926E+00  1.82674937E-02
 -1.68505407E+00 -7.97373046E-01 -7.38594650E-02 -1.68505407E+00 -7.97373046E-01
 -7.38594650E-02 -1.68505407E+00 -7.97373046E-01 -7.38594650E-02 -1.68505407E+00
 -7.97373046E-01 -7.38594650E-02  8.70043463E-01 -1.47182135E+00 -3.29609600E-01
  8.70043463E-01 -1.47182135E+00 -3.29609600E-01  8.70043463E-01 -1.47182135E+00
 -3.29609600E-01  8.70043463E-01 -1.47182135E+00 -3.29609600E-01  2.31035037E+00
  6.73828773E-01 -3.39227138E-01  2.31035037E+00  6.73828773E-01 -3.39227138E-01
  2.31035037E+00  6.73828773E-01 -3.39227138E-01  2.31035037E+00  6.73828773E-01
 -3.39227138E-01  4.86413458E+00  6.94966356E-01 -6.07646203E-01  4.86413458E+00
  6.94966356E-01 -6.07646203E-01  4.86413458E+00  6.94966356E-01 -6.07646203E-01
  4.86413458E+00  6.94966356E-01 -6.07646203E-01  6.11723833E+00 -1.29109695E+00
  7.02605096E-01  6.11723833E+00 -1.29109695E+00  7.02605096E-01  6.11723833E+00
 -1.29109695E+00  7.02605096E-01  6.11723833E+00 -1.29109695E+00  7.02605096E-01
  7.93609999E-01  2.69120642E+00 -1.25540956E-01  7.93609999E-01  2.69120642E+00
 -1.25540956E-01  7.93609999E-01  2.69120642E+00 -1.25540956E-01  7.93609999E-01
  2.69120642E+00 -1.25540956E-01 -1.68107699E+00  1.86799658E+00  6.11676924E-02
 -1.68107699E+00  1.86799658E+00  6.11676924E-02 -1.68107699E+00  1.86799658E+00
  6.11676924E-02 -1.68107699E+00  1.86799658E+00  6.11676924E-02 -3.81348316E+00
  3.55712054E+00  3.10856354E-01 -3.81348316E+00  3.55712054E+00  3.10856354E-01
 -3.81348316E+00  3.55712054E+00  3.10856354E-01 -3.81348316E+00  3.55712054E+00
  3.10856354E-01  1.48882494E+00 -3.26021764E+00 -5.30166390E-01  1.48882494E+00
 -3.26021764E+00 -5.30166390E-01  5.78739697E+00 -3.10948393E+00 -2.27105028E-01
  5.78739697E+00 -3.10948393E+00 -2.27105028E-01  8.14836934E+00 -9.08955608E-01
  6.48287920E-01  8.14836934E+00 -9.08955608E-01  6.48287920E-01  5.53011303E+00
 -1.37074970E+00  2.68642594E+00  5.53011303E+00 -1.37074970E+00  2.68642594E+00
  1.30120698E+00  4.66484270E+00 -9.74610246E-02  1.30120698E+00  4.66484270E+00
 -9.74610246E-02 -3.55568325E+00  4.71780408E+00  2.00220135E+00 -3.55568325E+00
  4.71780408E+00  2.00220135E+00 -3.89858472E+00  4.77683543E+00 -1.35621761E+00
 -3.89858472E+00  4.77683543E+00 -1.35621761E+00 -5.58581239E+00  2.51340102E+00
  4.73014572E-01 -5.58581239E+00  2.51340102E+00  4.73014572E-01
Num ILSW                                   I              100
ILSW                                       I   N=         100
           1           1           0           0           2           0
           0           0           0           0         402          -1
           5           0           0           0           0           0
           0           0           1           0           0           0
           1           0           0           0           0           0
           0           0      100000           0          -1           0
           0           0           0           0           0           0
           0           0           0           1           0           0
           0 -2000000000           1           0           0           0
           0           0           4          52           0           0
           0           0           5           0           0           0
           0           0           0           0           0           1
           0           0           0           0           0           0
           0           0           0           0           0           0
           0           0           0           0           0           0
           0           0           0           0           0           0
           0           0           0           0
Num RLSW                                   I               52
RLSW                                       R   N=          52
  8.00000000E-01  7.20000000E-01  1.00000000E+00  8.10000000E-01  2.00000000E-01
  0.00000000E+00  0.00000000E+00  1.00000000E+00  0.00000000E+00  0.00000000E+00
  0.00000000E+00  0.00000000E+00  1.00000000E+00  0.00000000E+00  0.00000000E+00
  0.00000000E+00  0.00000000E+00  1.00000000E+00  0.00000000E+00  0.00000000E+00
  0.00000000E+00  0.00000000E+00  1.00000000E+00  0.00000000E+00  0.00000000E+00
  0.00000000E+00  0.00000000E+00  1.00000000E+00  0.00000000E+00  0.00000000E+00
  0.00000000E+00  0.00000000E+00  1.00000000E+00  0.00000000E+00  0.00000000E+00
  0.00000000E+00  0.00000000E+00  0.00000000E+00  1.00000000E+00  1.00000000E+00
  0.00000000E+00  1.00000000E+00  0.00000000E+00  0.00000000E+00  0.00000000E+00
  0.00000000E+00  0.00000000E+00  0.00000000E+00  0.00000000E+00  0.00000000E+00
  0.00000000E+00  0.00000000E+00
MxBond                                     I                4
NBond                                      I   N=          17
           1           3           3           3           2           4
           3           3           4           1           1           1
           1           1           1           1           1
IBond                                      I   N=          68
           2           0           0           0           1           3
           8           0           2           4          10           0
           3           5           7           0           4           6
           0           0           5          11          12          13
           4           8          14           0           2           7
           9           0           8          15          16          17
           3           0           0           0           6           0
           0           0           6           0           0           0
           6           0           0           0           7           0
           0           0           9           0           0           0
           9           0           0           0           9           0
           0           0
RBond                                      R   N=          68
  2.00000000E+00  0.00000000E+00  0.00000000E+00  0.00000000E+00  2.00000000E+00
  1.00000000E+00  1.00000000E+00  0.00000000E+00  1.00000000E+00  1.50000000E+00
  1.00000000E+00  0.00000000E+00  1.50000000E+00  1.50000000E+00  2.00000000E+00
  0.00000000E+00  1.50000000E+00  1.00000000E+00  0.00000000E+00  0.00000000E+00
  1.00000000E+00  1.00000000E+00  1.00000000E+00  1.00000000E+00  2.00000000E+00
  1.00000000E+00  1.00000000E+00  0.00000000E+00  1.00000000E+00  1.00000000E+00
  1.00000000E+00  0.00000000E+00  1.00000000E+00  1.00000000E+00  1.00000000E+00
  1.00000000E+00  1.00000000E+00  0.00000000E+00  0.00000000E+00  0.00000000E+00
  1.00000000E+00  0.00000000E+00  0.00000000E+00  0.00000000E+00  1.00000000E+00
  0.00000000E+00  0.00000000E+00  0.00000000E+00  1.00000000E+00  0.00000000E+00
  0.00000000E+00  0.00000000E+00  1.00000000E+00  0.00000000E+00  0.00000000E+00
  0.00000000E+00  1.00000000E+00  0.00000000E+00  0.00000000E+00  0.00000000E+00
  1.00000000E+00  0.00000000E+00  0.00000000E+00  0.00000000E+00  1.00000000E+00
  0.00000000E+00  0.00000000E+00  0.00000000E+00
Virial Ratio                               R      2.006308655573358E+00
SCF Energy                                 R     -7.779892945129501E+02
Total Energy                               R     -7.779892945129501E+02
S**2                                       R      7.648023563406809E-01
S**2 after annihilation                    R      7.500423372355958E-01
RMS Density                                R      9.668904454751316E-09
Job Status                                 I                1
Nuclear derivative order                   I                0
External E-field                           R   N=          35
  0.00000000E+00  0.00000000E+00  0.00000000E+00  0.00000000E+00  0.00000000E+00
  0.00000000E+00  0.00000000E+00  0.00000000E+00  0.00000000E+00  0.00000000E+00
  0.00000000E+00  0.00000000E+00  0.00000000E+00  0.00000000E+00  0.00000000E+00
  0.00000000E+00  0.00000000E+00  0.00000000E+00  0.00000000E+00  0.00000000E+00
  0.00000000E+00  0.00000000E+00  0.00000000E+00  0.00000000E+00  0.00000000E+00
  0.00000000E+00  0.00000000E+00  0.00000000E+00  0.00000000E+00  0.00000000E+00
  0.00000000E+00  0.00000000E+00  0.00000000E+00  0.00000000E+00  0.00000000E+00
IOpCl                                      I                1
IROHF                                      I                0
Alpha Orbital Energies                     R   N=         155
 -8.90532790E+01 -1.93824189E+01 -1.46218314E+01 -1.46045978E+01 -1.04998621E+01
 -1.04979155E+01 -1.04362342E+01 -1.04033594E+01 -1.03979492E+01 -8.11443917E+00
 -6.08066367E+00 -6.07801693E+00 -6.06799263E+00 -1.28119290E+00 -1.23419264E+00
 -1.12990156E+00 -1.00364626E+00 -9.46889128E-01 -9.05769123E-01 -8.63974028E-01
 -8.25378852E-01 -7.93525677E-01 -7.45091745E-01 -6.93731458E-01 -6.89553731E-01
 -6.72464765E-01 -6.58766305E-01 -6.44253754E-01 -6.12021282E-01 -5.96593212E-01
 -5.88987536E-01 -5.71023399E-01 -5.36056951E-01 -5.15519985E-01 -5.07466331E-01
 -4.72428374E-01 -4.21183629E-01 -4.03553506E-01 -2.01576933E-01 -1.58217658E-01
 -1.09304759E-01 -8.67789567E-02 -7.01084468E-02 -4.66889385E-02 -3.42939847E-02
 -2.58474495E-02 -6.32039063E-03 -5.15779815E-03  6.50349537E-03  1.33206337E-02
  1.50738677E-02  2.37436045E-02  3.89868374E-02  7.38476648E-02  1.10273980E-01
  1.26337165E-01  1.90877987E-01  2.03589931E-01  2.24566700E-01  2.41865497E-01
  2.62136355E-01  3.17566682E-01  3.19110144E-01  3.22176648E-01  3.42677381E-01
  3.60812708E-01  3.65025629E-01  3.71201145E-01  4.07692549E-01  4.10667395E-01
  4.27418535E-01  4.69817546E-01  4.79959472E-01  5.30108127E-01  5.52794533E-01
  5.66377597E-01  5.70367634E-01  5.89980854E-01  6.25883153E-01  6.37625819E-01
  6.56195978E-01  6.69798797E-01  6.77390646E-01  6.88747845E-01  7.01688509E-01
  7.14261155E-01  7.33549742E-01  7.38288075E-01  7.55671523E-01  7.67676717E-01
  7.90903348E-01  8.05210652E-01  8.64106311E-01  8.70990010E-01  8.79420467E-01
  8.87512504E-01  9.65111182E-01  9.99083119E-01  1.04134518E+00  1.07558610E+00
  1.10131128E+00  1.11097217E+00  1.13482478E+00  1.15440680E+00  1.20304914E+00
  1.22408388E+00  1.29692216E+00  1.32091499E+00  1.33898919E+00  1.36985477E+00
  1.39421424E+00  1.55414812E+00  1.59714007E+00  1.60160642E+00  1.66515701E+00
  1.69138409E+00  1.74682507E+00  1.75509711E+00  1.80091459E+00  1.83226650E+00
  1.84282003E+00  1.87306363E+00  1.90555606E+00  1.91959658E+00  1.92838393E+00
  1.99158770E+00  2.00760838E+00  2.01113190E+00  2.05943448E+00  2.09849090E+00
  2.11702374E+00  2.16333533E+00  2.18023295E+00  2.21781979E+00  2.24280260E+00
  2.31416515E+00  2.37920866E+00  2.40110345E+00  2.47598508E+00  2.50264367E+00
  2.55109482E+00  2.65355257E+00  2.66806279E+00  2.79424815E+00  2.94766448E+00
  2.98773390E+00  3.73151433E+00  3.73998120E+00  3.80388353E+00  3.91639531E+00
  4.01986492E+00  4.07302792E+00  4.19626561E+00  4.20306812E+00  4.42846213E+00
Beta Orbital Energies                      R   N=         155
 -8.90500324E+01 -1.93808647E+01 -1.46184247E+01 -1.46035773E+01 -1.04994769E+01
 -1.04980902E+01 -1.04333464E+01 -1.04033165E+01 -1.03981022E+01 -8.11125843E+00
 -6.07611919E+00 -6.07014453E+00 -6.06606827E+00 -1.27764545E+00 -1.23001735E+00
 -1.12540323E+00 -9.96411110E-01 -9.42158051E-01 -9.01533882E-01 -8.56042078E-01
 -8.23275270E-01 -7.89847345E-01 -7.40876776E-01 -6.91741821E-01 -6.78940770E-01
 -6.70006284E-01 -6.56327008E-01 -6.37993208E-01 -6.09861223E-01 -5.93066218E-01
 -5.84710517E-01 -5.66673545E-01 -5.32190623E-01 -5.07319930E-01 -4.92291015E-01
 -4.46542810E-01 -4.13146053E-01 -3.26626762E-01 -1.88097478E-01 -1.39152878E-01
 -1.07810509E-01 -8.46309269E-02 -6.47815200E-02 -4.53777851E-02 -3.25054739E-02
 -2.42153801E-02 -5.14256176E-03 -3.56029826E-03  7.31081511E-03  1.45460788E-02
  1.69074206E-02  2.61800738E-02  4.04867590E-02  7.59505834E-02  1.12365997E-01
  1.30996259E-01  1.95073216E-01  2.22950942E-01  2.27609902E-01  2.45092041E-01
  2.65420583E-01  3.21194720E-01  3.22691186E-01  3.28300939E-01  3.44309930E-01
  3.61888081E-01  3.66720687E-01  3.74776905E-01  4.10468644E-01  4.18034782E-01
  4.28658224E-01  4.73464535E-01  4.82037510E-01  5.35875198E-01  5.64968481E-01
  5.72769819E-01  5.84571884E-01  6.07087169E-01  6.39326247E-01  6.42879196E-01
  6.64658907E-01  6.75245625E-01  6.81368965E-01  6.90877635E-01  7.05474355E-01
  7.16913801E-01  7.36392814E-01  7.39174180E-01  7.62100957E-01  7.69651295E-01
  7.92539777E-01  8.07242344E-01  8.67817376E-01  8.75934035E-01  8.81940764E-01
  8.93122909E-01  9.67517578E-01  1.00092312E+00  1.04272893E+00  1.07780299E+00
  1.10610251E+00  1.11318885E+00  1.14009629E+00  1.16042074E+00  1.20681495E+00
  1.22638824E+00  1.29896517E+00  1.32311661E+00  1.34461262E+00  1.37144125E+00
  1.39801771E+00  1.55821354E+00  1.60229403E+00  1.60303878E+00  1.66762218E+00
  1.69466465E+00  1.74806193E+00  1.75667148E+00  1.80197633E+00  1.83409502E+00