radical_cation                                                          
SP        UB3LYP                                                      6-31G(d)            
Number of atoms                            I               17
Info1-9                                    I   N=           9
          26          26           0           0           0         110
           1          18        -502
Full Title                                 C   N=           2
radical_cation          
Route                                      C   N=           2
# b3lyp/6-31G*          
Charge                                     I                1
Multiplicity                               I                2
Number of electrons                        I               75
Number of alpha electrons                  I               38
Number of beta electrons                   I               37
Number of basis functions                  I              155
Number of independent functions            I              155
Number of point charges in /Mol/           I                0
Number of translation vectors              I                0
Atomic numbers                             I   N=          17
          16           6           7           6           8           6
           6           7           6           1           1           1
           1           1           1           1           1
Nuclear charges                            R   N=          17
  1.60000000E+01  6.00000000E+00  7.00000000E+00  6.00000000E+00  8.00000000E+00
  6.00000000E+00  6.00000000E+00  7.00000000E+00  6.00000000E+00  1.00000000E+00
  1.00000000E+00  1.00000000E+00  1.00000000E+00  1.00000000E+00  1.00000000E+00
  1.00000000E+00  1.00000000E+00
Current cartesian coordinates              R   N=          51
  4.91436618E+00 -1.85586695E+00  1.31736054E-05  2.02181486E+00 -6.80237500E-01
 -3.56094339E-05 -1.96330990E-01 -2.13040705E+00 -3.24549369E-05 -2.24742807E+00
 -5.64762478E-01 -4.76487899E-05 -4.57897825E+00 -1.61837126E+00  5.26752242E-05
 -6.62196197E+00  1.28222124E-01 -3.95988703E-08 -1.43872459E+00  1.84511933E+00
 -3.13796607E-05  1.17811093E+00  1.85366331E+00  9.15346563E-06  2.67845725E+00
  4.13652698E+00  4.38634729E-06 -2.77967623E-01 -4.03341586E+00  3.41492729E-05
 -8.38510915E+00 -9.51521563E-01 -5.27809101E-06 -6.59180750E+00  1.30469352E+00
 -1.70264171E+00 -6.59171375E+00  1.30466622E+00  1.70267550E+00 -2.51469003E+00
  3.57493326E+00  2.01994157E-05  2.22012499E+00  5.23849112E+00  1.68814487E+00
  2.22010023E+00  5.23855137E+00 -1.68804061E+00  4.69762540E+00  3.71243868E+00
  5.55594010E-06
Number of symbols in /Mol/                 I                0
Int Atom Types                             I   N=          17
           0           0           0           0           0           0
           0           0           0           0           0           0
           0           0           0           0           0
Force Field                                I                0
Atom Types                                 C   N=          17
                                                            
                                                            
                                                            
                        
MM charges                                 R   N=          17
  0.00000000E+00  0.00000000E+00  0.00000000E+00  0.00000000E+00  0.00000000E+00
  0.00000000E+00  0.00000000E+00  0.00000000E+00  0.00000000E+00  0.00000000E+00
  0.00000000E+00  0.00000000E+00  0.00000000E+00  0.00000000E+00  0.00000000E+00
  0.00000000E+00  0.00000000E+00
Integer atomic weights                     I   N=          17
          32          12          14          12          16          12
          12          14          12           1           1           1
           1           1           1           1           1
Real atomic weights                        R   N=          17
  3.19720718E+01  1.20000000E+01  1.40030740E+01  1.20000000E+01  1.59949146E+01
  1.20000000E+01  1.20000000E+01  1.40030740E+01  1.20000000E+01  1.00782504E+00
  1.00782504E+00  1.00782504E+00  1.00782504E+00  1.00782504E+00  1.00782504E+00
  1.00782504E+00  1.00782504E+00
Atom fragment info                         I   N=          17
           0           0           0           0           0           0
           0           0           0           0           0           0
           0           0           0           0           0
Atom residue num                           I   N=          17
           0           0           0           0           0           0
           0           0           0           0           0           0
           0           0           0           0           0
Nuclear spins                              I   N=          17
           0           0           2           0           0           0
           0           2           0           1           1           1
           1           1           1           1           1
Nuclear ZEff                               R   N=          17
 -1.36000000E+01 -3.60000000E+00 -4.55000000E+00 -3.60000000E+00 -5.60000000E+00
 -3.60000000E+00 -3.60000000E+00 -4.55000000E+00 -3.60000000E+00 -1.00000000E+00
 -1.00000000E+00 -1.00000000E+00 -1.00000000E+00 -1.00000000E+00 -1.00000000E+00
 -1.00000000E+00 -1.00000000E+00
Nuclear ZNuc                               R   N=          17
  1.60000000E+01  6.00000000E+00  7.00000000E+00  6.00000000E+00  8.00000000E+00
  6.00000000E+00  6.00000000E+00  7.00000000E+00  6.00000000E+00  1.00000000E+00
  1.00000000E+00  1.00000000E+00  1.00000000E+00  1.00000000E+00  1.00000000E+00
  1.00000000E+00  1.00000000E+00
Nuclear QMom                               R   N=          17
  0.00000000E+00  0.00000000E+00  2.04400000E+00  0.00000000E+00  0.00000000E+00
  0.00000000E+00  0.00000000E+00  2.04400000E+00  0.00000000E+00  0.00000000E+00
  0.00000000E+00  0.00000000E+00  0.00000000E+00  0.00000000E+00  0.00000000E+00
  0.00000000E+00  0.00000000E+00
Nuclear GFac                               R   N=          17
  0.00000000E+00  0.00000000E+00  4.03761000E-01  0.00000000E+00  0.00000000E+00
  0.00000000E+00  0.00000000E+00  4.03761000E-01  0.00000000E+00  2.79284600E+00
  2.79284600E+00  2.79284600E+00  2.79284600E+00  2.79284600E+00  2.79284600E+00
  2.79284600E+00  2.79284600E+00
MicOpt                                     I   N=          17
          -1          -1          -1          -1          -1          -1
          -1          -1          -1          -1          -1          -1
          -1          -1          -1          -1          -1
Number of residues                         I                0
Number of secondary structures             I                0
SymInf integers                            I   N=          26
           1           1           1           1           1           0
           0           0           0           0           0           0
           0           0           0           0           0           0
           0           0           0           0           0           0
           0           0
RotTr to input orientation                 R   N=          12
 -9.20628803E-01  3.75942805E-01 -1.05402152E-01 -3.39945933E-01 -9.04589638E-01
 -2.57204878E-01 -1.92040018E-01 -2.00959186E-01  9.60591504E-01 -7.26776235E-01
  1.30968215E+00  1.28695322E-01
Number of contracted shells                I               53
Number of primitive shells                 I              137
Pure/Cartesian d shells                    I                1
Pure/Cartesian f shells                    I                0
Highest angular momentum                   I                2
Largest degree of contraction              I                6
Shell types                                I   N=          53
           0          -1          -1          -1           2           0
          -1          -1           2           0          -1          -1
           2           0          -1          -1           2           0
          -1          -1           2           0          -1          -1
           2           0          -1          -1           2           0
          -1          -1           2           0          -1          -1
           2           0           0           0           0           0
           0           0           0           0           0           0
           0           0           0           0           0
Number of primitives per shell             I   N=          53
           6           6           3           1           1           6
           3           1           1           6           3           1
           1           6           3           1           1           6
           3           1           1           6           3           1
           1           6           3           1           1           6
           3           1           1           6           3           1
           1           3           1           3           1           3
           1           3           1           3           1           3
           1           3           1           3           1
Shell to atom map                          I   N=          53
           1           1           1           1           1           2
           2           2           2           3           3           3
           3           4           4           4           4           5
           5           5           5           6           6           6
           6           7           7           7           7           8
           8           8           8           9           9           9
           9          10          10          11          11          12
          12          13          13          14          14          15
          15          16          16          17          17
Primitive exponents                        R   N=         137
  2.19171000E+04  3.30149000E+03  7.54146000E+02  2.12711000E+02  6.79896000E+01
  2.30515000E+01  4.23735000E+02  1.00710000E+02  3.21599000E+01  1.18079000E+01
  4.63110000E+00  1.87025000E+00  2.61584000E+00  9.22167000E-01  3.41287000E-01
  1.17167000E-01  6.50000000E-01  3.04752488E+03  4.57369518E+02  1.03948685E+02
  2.92101553E+01  9.28666296E+00  3.16392696E+00  7.86827235E+00  1.88128854E+00
  5.44249258E-01  1.68714478E-01  8.00000000E-01  4.17351146E+03  6.27457911E+02
  1.42902093E+02  4.02343293E+01  1.28202129E+01  4.39043701E+00  1.16263619E+01
  2.71627981E+00  7.72218397E-01  2.12031498E-01  8.00000000E-01  3.04752488E+03
  4.57369518E+02  1.03948685E+02  2.92101553E+01  9.28666296E+00  3.16392696E+00
  7.86827235E+00  1.88128854E+00  5.44249258E-01  1.68714478E-01  8.00000000E-01
  5.48467166E+03  8.25234946E+02  1.88046958E+02  5.29645000E+01  1.68975704E+01
  5.79963534E+00  1.55396162E+01  3.59993359E+00  1.01376175E+00  2.70005823E-01
  8.00000000E-01  3.04752488E+03  4.57369518E+02  1.03948685E+02  2.92101553E+01
  9.28666296E+00  3.16392696E+00  7.86827235E+00  1.88128854E+00  5.44249258E-01
  1.68714478E-01  8.00000000E-01  3.04752488E+03  4.57369518E+02  1.03948685E+02
  2.92101553E+01  9.28666296E+00  3.16392696E+00  7.86827235E+00  1.88128854E+00
  5.44249258E-01  1.68714478E-01  8.00000000E-01  4.17351146E+03  6.27457911E+02
  1.42902093E+02  4.02343293E+01  1.28202129E+01  4.39043701E+00  1.16263619E+01
  2.71627981E+00  7.72218397E-01  2.12031498E-01  8.00000000E-01  3.04752488E+03
  4.57369518E+02  1.03948685E+02  2.92101553E+01  9.28666296E+00  3.16392696E+00
  7.86827235E+00  1.88128854E+00  5.44249258E-01  1.68714478E-01  8.00000000E-01
  1.87311370E+01  2.82539436E+00  6.40121692E-01  1.61277759E-01  1.87311370E+01
  2.82539436E+00  6.40121692E-01  1.61277759E-01  1.87311370E+01  2.82539436E+00
  6.40121692E-01  1.61277759E-01  1.87311370E+01  2.82539436E+00  6.40121692E-01
  1.61277759E-01  1.87311370E+01  2.82539436E+00  6.40121692E-01  1.61277759E-01
  1.87311370E+01  2.82539436E+00  6.40121692E-01  1.61277759E-01  1.87311370E+01
  2.82539436E+00  6.40121692E-01  1.61277759E-01  1.87311370E+01  2.82539436E+00
  6.40121692E-01  1.61277759E-01
Contraction coefficients                   R   N=         137
  1.86924085E-03  1.42303065E-02  6.96962317E-02  2.38487108E-01  4.83307220E-01
  3.38074154E-01 -2.37677050E-03 -3.16930067E-02 -1.13317024E-01  5.60900118E-02
  5.92255124E-01  4.55006095E-01 -2.50373114E-01  6.69567631E-02  1.05450627E+00
  1.00000000E+00  1.00000000E+00  1.83473713E-03  1.40373228E-02  6.88426223E-02
  2.32184443E-01  4.67941348E-01  3.62311985E-01 -1.19332420E-01 -1.60854152E-01
  1.14345644E+00  1.00000000E+00  1.00000000E+00  1.83477216E-03  1.39946270E-02
  6.85865518E-02  2.32240873E-01  4.69069948E-01  3.60455199E-01 -1.14961182E-01
 -1.69117479E-01  1.14585195E+00  1.00000000E+00  1.00000000E+00  1.83473713E-03
  1.40373228E-02  6.88426223E-02  2.32184443E-01  4.67941348E-01  3.62311985E-01
 -1.19332420E-01 -1.60854152E-01  1.14345644E+00  1.00000000E+00  1.00000000E+00
  1.83107443E-03  1.39501722E-02  6.84450781E-02  2.32714336E-01  4.70192898E-01
  3.58520853E-01 -1.10777550E-01 -1.48026263E-01  1.13076702E+00  1.00000000E+00
  1.00000000E+00  1.83473713E-03  1.40373228E-02  6.88426223E-02  2.32184443E-01
  4.67941348E-01  3.62311985E-01 -1.19332420E-01 -1.60854152E-01  1.14345644E+00
  1.00000000E+00  1.00000000E+00  1.83473713E-03  1.40373228E-02  6.88426223E-02
  2.32184443E-01  4.67941348E-01  3.62311985E-01 -1.19332420E-01 -1.60854152E-01
  1.14345644E+00  1.00000000E+00  1.00000000E+00  1.83477216E-03  1.39946270E-02
  6.85865518E-02  2.32240873E-01  4.69069948E-01  3.60455199E-01 -1.14961182E-01
 -1.69117479E-01  1.14585195E+00  1.00000000E+00  1.00000000E+00  1.83473713E-03
  1.40373228E-02  6.88426223E-02  2.32184443E-01  4.67941348E-01  3.62311985E-01
 -1.19332420E-01 -1.60854152E-01  1.14345644E+00  1.00000000E+00  1.00000000E+00
  3.34946043E-02  2.34726953E-01  8.13757326E-01  1.00000000E+00  3.34946043E-02
  2.34726953E-01  8.13757326E-01  1.00000000E+00  3.34946043E-02  2.34726953E-01
  8.13757326E-01  1.00000000E+00  3.34946043E-02  2.34726953E-01  8.13757326E-01
  1.00000000E+00  3.34946043E-02  2.34726953E-01  8.13757326E-01  1.00000000E+00
  3.34946043E-02  2.34726953E-01  8.13757326E-01  1.00000000E+00  3.34946043E-02
  2.34726953E-01  8.13757326E-01  1.00000000E+00  3.34946043E-02  2.34726953E-01
  8.13757326E-01  1.00000000E+00
P(S=P) Contraction coefficients            R   N=         137
  0.00000000E+00  0.00000000E+00  0.00000000E+00  0.00000000E+00  0.00000000E+00
  0.00000000E+00  4.06100998E-03  3.06812999E-02  1.30451999E-01  3.27204999E-01
  4.52850998E-01  2.56041999E-01 -1.45104895E-02  3.10262776E-01  7.54482456E-01
  1.00000000E+00  0.00000000E+00  0.00000000E+00  0.00000000E+00  0.00000000E+00
  0.00000000E+00  0.00000000E+00  0.00000000E+00  6.89990666E-02  3.16423961E-01
  7.44308291E-01  1.00000000E+00  0.00000000E+00  0.00000000E+00  0.00000000E+00
  0.00000000E+00  0.00000000E+00  0.00000000E+00  0.00000000E+00  6.75797439E-02
  3.23907296E-01  7.40895140E-01  1.00000000E+00  0.00000000E+00  0.00000000E+00
  0.00000000E+00  0.00000000E+00  0.00000000E+00  0.00000000E+00  0.00000000E+00
  6.89990666E-02  3.16423961E-01  7.44308291E-01  1.00000000E+00  0.00000000E+00
  0.00000000E+00  0.00000000E+00  0.00000000E+00  0.00000000E+00  0.00000000E+00
  0.00000000E+00  7.08742682E-02  3.39752839E-01  7.27158577E-01  1.00000000E+00
  0.00000000E+00  0.00000000E+00  0.00000000E+00  0.00000000E+00  0.00000000E+00
  0.00000000E+00  0.00000000E+00  6.89990666E-02  3.16423961E-01  7.44308291E-01
  1.00000000E+00  0.00000000E+00  0.00000000E+00  0.00000000E+00  0.00000000E+00
  0.00000000E+00  0.00000000E+00  0.00000000E+00  6.89990666E-02  3.16423961E-01
  7.44308291E-01  1.00000000E+00  0.00000000E+00  0.00000000E+00  0.00000000E+00
  0.00000000E+00  0.00000000E+00  0.00000000E+00  0.00000000E+00  6.75797439E-02
  3.23907296E-01  7.40895140E-01  1.00000000E+00  0.00000000E+00  0.00000000E+00
  0.00000000E+00  0.00000000E+00  0.00000000E+00  0.00000000E+00  0.00000000E+00
  6.89990666E-02  3.16423961E-01  7.44308291E-01  1.00000000E+00  0.00000000E+00
  0.00000000E+00  0.00000000E+00  0.00000000E+00  0.00000000E+00  0.00000000E+00
  0.00000000E+00  0.00000000E+00  0.00000000E+00  0.00000000E+00  0.00000000E+00
  0.00000000E+00  0.00000000E+00  0.00000000E+00  0.00000000E+00  0.00000000E+00
  0.00000000E+00  0.00000000E+00  0.00000000E+00  0.00000000E+00  0.00000000E+00
  0.00000000E+00  0.00000000E+00  0.00000000E+00  0.00000000E+00  0.00000000E+00
  0.00000000E+00  0.00000000E+00  0.00000000E+00  0.00000000E+00  0.00000000E+00
  0.00000000E+00  0.00000000E+00
Coordinates of each shell                  R   N=         159
  4.91436618E+00 -1.85586695E+00  1.31736054E-05  4.91436618E+00 -1.85586695E+00
  1.31736054E-05  4.91436618E+00 -1.85586695E+00  1.31736054E-05  4.91436618E+00
 -1.85586695E+00  1.31736054E-05  4.91436618E+00 -1.85586695E+00  1.31736054E-05
  2.02181486E+00 -6.80237500E-01 -3.56094339E-05  2.02181486E+00 -6.80237500E-01
 -3.56094339E-05  2.02181486E+00 -6.80237500E-01 -3.56094339E-05  2.02181486E+00
 -6.80237500E-01 -3.56094339E-05 -1.96330990E-01 -2.13040705E+00 -3.24549369E-05
 -1.96330990E-01 -2.13040705E+00 -3.24549369E-05 -1.96330990E-01 -2.13040705E+00
 -3.24549369E-05 -1.96330990E-01 -2.13040705E+00 -3.24549369E-05 -2.24742807E+00
 -5.64762478E-01 -4.76487899E-05 -2.24742807E+00 -5.64762478E-01 -4.76487899E-05
 -2.24742807E+00 -5.64762478E-01 -4.76487899E-05 -2.24742807E+00 -5.64762478E-01
 -4.76487899E-05 -4.57897825E+00 -1.61837126E+00  5.26752242E-05 -4.57897825E+00
 -1.61837126E+00  5.26752242E-05 -4.57897825E+00 -1.61837126E+00  5.26752242E-05
 -4.57897825E+00 -1.61837126E+00  5.26752242E-05 -6.62196197E+00  1.28222124E-01
 -3.95988702E-08 -6.62196197E+00  1.28222124E-01 -3.95988702E-08 -6.62196197E+00
  1.28222124E-01 -3.95988702E-08 -6.62196197E+00  1.28222124E-01 -3.95988702E-08
 -1.43872459E+00  1.84511933E+00 -3.13796607E-05 -1.43872459E+00  1.84511933E+00
 -3.13796607E-05 -1.43872459E+00  1.84511933E+00 -3.13796607E-05 -1.43872459E+00
  1.84511933E+00 -3.13796607E-05  1.17811093E+00  1.85366331E+00  9.15346563E-06
  1.17811093E+00  1.85366331E+00  9.15346563E-06  1.17811093E+00  1.85366331E+00
  9.15346563E-06  1.17811093E+00  1.85366331E+00  9.15346563E-06  2.67845725E+00
  4.13652698E+00  4.38634729E-06  2.67845725E+00  4.13652698E+00  4.38634729E-06
  2.67845725E+00  4.13652698E+00  4.38634729E-06  2.67845725E+00  4.13652698E+00
  4.38634729E-06 -2.77967623E-01 -4.03341586E+00  3.41492729E-05 -2.77967623E-01
 -4.03341586E+00  3.41492729E-05 -8.38510915E+00 -9.51521563E-01 -5.27809101E-06
 -8.38510915E+00 -9.51521563E-01 -5.27809101E-06 -6.59180750E+00  1.30469352E+00
 -1.70264171E+00 -6.59180750E+00  1.30469352E+00 -1.70264171E+00 -6.59171375E+00
  1.30466622E+00  1.70267550E+00 -6.59171375E+00  1.30466622E+00  1.70267550E+00
 -2.51469003E+00  3.57493326E+00  2.01994157E-05 -2.51469003E+00  3.57493326E+00
  2.01994157E-05  2.22012499E+00  5.23849112E+00  1.68814487E+00  2.22012499E+00
  5.23849112E+00  1.68814487E+00  2.22010023E+00  5.23855137E+00 -1.68804061E+00
  2.22010023E+00  5.23855137E+00 -1.68804061E+00  4.69762540E+00  3.71243868E+00
  5.55594010E-06  4.69762540E+00  3.71243868E+00  5.55594010E-06
Num ILSW                                   I              100
ILSW                                       I   N=         100
           1           1           0           0           2           0
           0           0           0           0         402          -1
           5           0           0           0           0           0
           0           0           1           0           0           0
           1           0           0           0           0           0
           0           0      100000           0          -1           0
           0           0           0           0           0           0
           0           0           0           1           0           0
           0 -2000000000           1           0           0           0
           0           0           4          52           0           0
           0           0           5           0           0           0
           0           0           0           0           0           1
           0           0           0           0           0           0
           0           0           0           0           0           0
           0           0           0           0           0           0
           0           0           0           0           0           0
           0           0           0           0
Num RLSW                                   I               52
RLSW                                       R   N=          52
  8.00000000E-01  7.20000000E-01  1.00000000E+00  8.10000000E-01  2.00000000E-01
  0.00000000E+00  0.00000000E+00  1.00000000E+00  0.00000000E+00  0.00000000E+00
  0.00000000E+00  0.00000000E+00  1.00000000E+00  0.00000000E+00  0.00000000E+00
  0.00000000E+00  0.00000000E+00  1.00000000E+00  0.00000000E+00  0.00000000E+00
  0.00000000E+00  0.00000000E+00  1.00000000E+00  0.00000000E+00  0.00000000E+00
  0.00000000E+00  0.00000000E+00  1.00000000E+00  0.00000000E+00  0.00000000E+00
  0.00000000E+00  0.00000000E+00  1.00000000E+00  0.00000000E+00  0.00000000E+00
  0.00000000E+00  0.00000000E+00  0.00000000E+00  1.00000000E+00  1.00000000E+00
  0.00000000E+00  1.00000000E+00  0.00000000E+00  0.00000000E+00  0.00000000E+00
  0.00000000E+00  0.00000000E+00  0.00000000E+00  0.00000000E+00  0.00000000E+00
  0.00000000E+00  0.00000000E+00
MxBond                                     I                4
NBond                                      I   N=          17
           1           3           3           3           2           4
           3           3           4           1           1           1
           1           1           1           1           1
IBond                                      I   N=          68
           2           0           0           0           1           3
           8           0           2           4          10           0
           3           5           7           0           4           6
           0           0           5          11          12          13
           4           8          14           0           2           7
           9           0           8          15          16          17
           3           0           0           0           6           0
           0           0           6           0           0           0
           6           0           0           0           7           0
           0           0           9           0           0           0
           9           0           0           0           9           0
           0           0
RBond                                      R   N=          68
  2.00000000E+00  0.00000000E+00  0.00000000E+00  0.00000000E+00  2.00000000E+00
  1.00000000E+00  1.00000000E+00  0.00000000E+00  1.00000000E+00  1.50000000E+00
  1.00000000E+00  0.00000000E+00  1.50000000E+00  1.50000000E+00  2.00000000E+00
  0.00000000E+00  1.50000000E+00  1.00000000E+00  0.00000000E+00  0.00000000E+00
  1.00000000E+00  1.00000000E+00  1.00000000E+00  1.00000000E+00  2.00000000E+00
  1.00000000E+00  1.00000000E+00  0.00000000E+00  1.00000000E+00  1.00000000E+00
  1.00000000E+00  0.00000000E+00  1.00000000E+00  1.00000000E+00  1.00000000E+00
  1.00000000E+00  1.00000000E+00  0.00000000E+00  0.00000000E+00  0.00000000E+00
  1.00000000E+00  0.00000000E+00  0.00000000E+00  0.00000000E+00  1.00000000E+00
  0.00000000E+00  0.00000000E+00  0.00000000E+00  1.00000000E+00  0.00000000E+00
  0.00000000E+00  0.00000000E+00  1.00000000E+00  0.00000000E+00  0.00000000E+00
  0.00000000E+00  1.00000000E+00  0.00000000E+00  0.00000000E+00  0.00000000E+00
  1.00000000E+00  0.00000000E+00  0.00000000E+00  0.00000000E+00  1.00000000E+00
  0.00000000E+00  0.00000000E+00  0.00000000E+00
Virial Ratio                               R      2.006347570612369E+00
SCF Energy                                 R     -7.779962385606896E+02
Total Energy                               R     -7.779962385606896E+02
S**2                                       R      7.652880055662621E-01
S**2 after annihilation                    R      7.500447245442706E-01
RMS Density                                R      7.238315410787750E-09
Job Status                                 I                1
Nuclear derivative order                   I                0
External E-field                           R   N=          35
  0.00000000E+00  0.00000000E+00  0.00000000E+00  0.00000000E+00  0.00000000E+00
  0.00000000E+00  0.00000000E+00  0.00000000E+00  0.00000000E+00  0.00000000E+00
  0.00000000E+00  0.00000000E+00  0.00000000E+00  0.00000000E+00  0.00000000E+00
  0.00000000E+00  0.00000000E+00  0.00000000E+00  0.00000000E+00  0.00000000E+00
  0.00000000E+00  0.00000000E+00  0.00000000E+00  0.00000000E+00  0.00000000E+00
  0.00000000E+00  0.00000000E+00  0.00000000E+00  0.00000000E+00  0.00000000E+00
  0.00000000E+00  0.00000000E+00  0.00000000E+00  0.00000000E+00  0.00000000E+00
IOpCl                                      I                1
IROHF                                      I                0
Alpha Orbital Energies                     R   N=         155
 -8.90508488E+01 -1.93891271E+01 -1.46206815E+01 -1.45981030E+01 -1.05006735E+01
 -1.04956548E+01 -1.04370996E+01 -1.04015506E+01 -1.03979979E+01 -8.11202115E+00
 -6.07826930E+00 -6.07560523E+00 -6.06554145E+00 -1.28366500E+00 -1.23398113E+00
 -1.12771724E+00 -1.00023464E+00 -9.45246180E-01 -9.02744083E-01 -8.73961278E-01
 -8.22468136E-01 -7.81359371E-01 -7.45656234E-01 -6.98755197E-01 -6.88801340E-01
 -6.68604030E-01 -6.61554595E-01 -6.44507462E-01 -6.09284764E-01 -5.99706979E-01
 -5.87193925E-01 -5.68729336E-01 -5.30300810E-01 -5.28798789E-01 -5.05940336E-01
 -4.68454099E-01 -4.18705166E-01 -4.02290606E-01 -1.98776999E-01 -1.49722136E-01
 -1.01491203E-01 -7.42961125E-02 -7.17235666E-02 -5.34128369E-02 -4.33287973E-02
 -2.53695828E-02 -7.54296276E-03 -5.32899993E-03  3.49069348E-03  1.35829660E-02
  1.82062835E-02  2.01324533E-02  4.93107308E-02  6.76640453E-02  1.03835567E-01
  1.31445785E-01  1.94189622E-01  2.06131732E-01  2.14189010E-01  2.45448386E-01
  2.66334138E-01  3.03813966E-01  3.16894321E-01  3.19627920E-01  3.50321166E-01
  3.66235858E-01  3.69085872E-01  3.77466221E-01  4.02810493E-01  4.14322815E-01
  4.18431284E-01  4.76620038E-01  4.78955339E-01  5.38059018E-01  5.61245923E-01
  5.66258977E-01  5.82979433E-01  5.87108898E-01  6.27536929E-01  6.39332847E-01
  6.65213416E-01  6.67651860E-01  6.81194239E-01  6.98584928E-01  7.04450331E-01
  7.12673566E-01  7.22747973E-01  7.44001724E-01  7.53389684E-01  7.68074576E-01
  7.92410695E-01  7.99296683E-01  8.46373082E-01  8.67288109E-01  8.69172110E-01
  8.89394047E-01  9.79979144E-01  1.02965070E+00  1.06940456E+00  1.08892752E+00
  1.10363921E+00  1.11985125E+00  1.12699299E+00  1.14598029E+00  1.20981793E+00
  1.21306916E+00  1.29290400E+00  1.30625537E+00  1.35085713E+00  1.36294655E+00
  1.39628520E+00  1.49959708E+00  1.57473528E+00  1.64433601E+00  1.66718005E+00
  1.72728790E+00  1.74815609E+00  1.77335859E+00  1.79803094E+00  1.80799309E+00
  1.84245493E+00  1.89842229E+00  1.90895751E+00  1.92410043E+00  1.94900833E+00
  1.95334169E+00  1.99038674E+00  2.01617295E+00  2.06276424E+00  2.10555797E+00
  2.12757643E+00  2.15309991E+00  2.17039023E+00  2.22935447E+00  2.26243143E+00
  2.32945999E+00  2.37906570E+00  2.41041548E+00  2.41283611E+00  2.50797466E+00
  2.56448487E+00  2.61171952E+00  2.67716374E+00  2.80521616E+00  2.98693620E+00
  2.99448853E+00  3.72772880E+00  3.74577350E+00  3.81667738E+00  3.95264851E+00
  4.00995478E+00  4.11459126E+00  4.19572270E+00  4.20284325E+00  4.45543103E+00
Beta Orbital Energies                      R   N=         155
 -8.90475980E+01 -1.93875974E+01 -1.46169825E+01 -1.45972455E+01 -1.04991814E+01
 -1.04972721E+01 -1.04340731E+01 -1.04016069E+01 -1.03981654E+01 -8.10883583E+00
 -6.07370335E+00 -6.06773645E+00 -6.06361509E+00 -1.28030768E+00 -1.22964471E+00
 -1.12317838E+00 -9.93111306E-01 -9.41407549E-01 -8.97458079E-01 -8.66292935E-01
 -8.20304607E-01 -7.77985000E-01 -7.41247751E-01 -6.97113400E-01 -6.77634316E-01
 -6.66383175E-01 -6.59157146E-01 -6.37983549E-01 -6.07170503E-01 -5.96585041E-01
 -5.83815651E-01 -5.63517573E-01 -5.27758587E-01 -5.21537599E-01 -4.89029492E-01
 -4.42184489E-01 -4.10631937E-01 -3.24916206E-01 -1.85199500E-01 -1.31238480E-01
 -9.92644135E-02 -7.21507977E-02 -6.79740924E-02 -5.08624659E-02 -4.21356881E-02
 -2.45873273E-02 -6.29253823E-03 -2.80598356E-03  4.41068552E-03  1.60589052E-02
  1.92644301E-02  2.06566997E-02  5.14449291E-02  7.07462418E-02  1.06103223E-01
  1.35284140E-01  1.97677867E-01  2.17317722E-01  2.25565700E-01  2.48577316E-01
  2.69575999E-01  3.05653281E-01  3.19755049E-01  3.27590568E-01  3.51477186E-01
  3.67595559E-01  3.73073495E-01  3.78379127E-01  4.05644488E-01  4.17665069E-01
  4.23966693E-01  4.80888186E-01  4.82457628E-01  5.40487544E-01  5.72470122E-01
  5.81471189E-01  5.91221762E-01  6.00507175E-01  6.41290145E-01  6.49049961E-01
  6.70447772E-01  6.74100709E-01  6.85202112E-01  7.02606847E-01  7.05725671E-01
  7.13979433E-01  7.25145036E-01  7.45132122E-01  7.62533996E-01  7.70589267E-01
  7.94105580E-01  8.00121008E-01  8.49136332E-01  8.70973376E-01  8.72885545E-01
  8.97587351E-01  9.81718158E-01  1.03057010E+00  1.07080691E+00  1.09029250E+00
  1.10859958E+00  1.12209236E+00  1.13192061E+00  1.15436505E+00  1.21072420E+00
  1.21840407E+00  1.29413273E+00  1.30879144E+00  1.35643551E+00  1.36463047E+00
  1.40078428E+00  1.50160964E+00  1.58005183E+00  1.64509789E+00  1.67047451E+00
  1.73033758E+00  1.74978411E+00  1.77429907E+00  1.80280093E+00  1.80904213E+00