radical_cation                                                          
SP        RB3LYP                                                      6-31G(d)            
Number of atoms                            I               17
Info1-9                                    I   N=           9
          26          26           0           0           0         110
           1          18        -502
Full Title                                 C   N=           2
radical_cation          
Route                                      C   N=           2
# b3lyp/6-31G*          
Charge                                     I                2
Multiplicity                               I                1
Number of electrons                        I               74
Number of alpha electrons                  I               37
Number of beta electrons                   I               37
Number of basis functions                  I              155
Number of independent functions            I              155
Number of point charges in /Mol/           I                0
Number of translation vectors              I                0
Atomic numbers                             I   N=          17
          16           6           7           6           8           6
           6           7           6           1           1           1
           1           1           1           1           1
Nuclear charges                            R   N=          17
  1.60000000E+01  6.00000000E+00  7.00000000E+00  6.00000000E+00  8.00000000E+00
  6.00000000E+00  6.00000000E+00  7.00000000E+00  6.00000000E+00  1.00000000E+00
  1.00000000E+00  1.00000000E+00  1.00000000E+00  1.00000000E+00  1.00000000E+00
  1.00000000E+00  1.00000000E+00
Current cartesian coordinates              R   N=          51
 -4.04922955E+00 -2.83491044E+00  1.82736516E-02 -1.68504989E+00 -7.97369938E-01
 -7.38504969E-02  8.70048805E-01 -1.47181319E+00 -3.29606031E-01  2.31034137E+00
  6.73819644E-01 -3.39224737E-01  4.86413615E+00  6.94965680E-01 -6.07641435E-01
  6.11723244E+00 -1.29109868E+00  7.02600173E-01  7.93609383E-01  2.69121567E+00
 -1.25534506E-01 -1.68108146E+00  1.86799427E+00  6.11704347E-02 -3.81348622E+00
  3.55712597E+00  3.10859947E-01  1.48882073E+00 -3.26021220E+00 -5.30162664E-01
  5.78739964E+00 -3.10948765E+00 -2.27107286E-01  8.14836677E+00 -9.08958266E-01
  6.48289444E-01  5.53011343E+00 -1.37075064E+00  2.68643466E+00  1.30120872E+00
  4.66484563E+00 -9.74531762E-02 -3.55568978E+00  4.71779576E+00  2.00220262E+00
 -3.89858058E+00  4.77683080E+00 -1.35621865E+00 -5.58580366E+00  2.51339244E+00
  4.73017346E-01
Number of symbols in /Mol/                 I                0
Int Atom Types                             I   N=          17
           0           0           0           0           0           0
           0           0           0           0           0           0
           0           0           0           0           0
Force Field                                I                0
Atom Types                                 C   N=          17
                                                            
                                                            
                                                            
                        
MM charges                                 R   N=          17
  0.00000000E+00  0.00000000E+00  0.00000000E+00  0.00000000E+00  0.00000000E+00
  0.00000000E+00  0.00000000E+00  0.00000000E+00  0.00000000E+00  0.00000000E+00
  0.00000000E+00  0.00000000E+00  0.00000000E+00  0.00000000E+00  0.00000000E+00
  0.00000000E+00  0.00000000E+00
Integer atomic weights                     I   N=          17
          32          12          14          12          16          12
          12          14          12           1           1           1
           1           1           1           1           1
Real atomic weights                        R   N=          17
  3.19720718E+01  1.20000000E+01  1.40030740E+01  1.20000000E+01  1.59949146E+01
  1.20000000E+01  1.20000000E+01  1.40030740E+01  1.20000000E+01  1.00782504E+00
  1.00782504E+00  1.00782504E+00  1.00782504E+00  1.00782504E+00  1.00782504E+00
  1.00782504E+00  1.00782504E+00
Atom fragment info                         I   N=          17
           0           0           0           0           0           0
           0           0           0           0           0           0
           0           0           0           0           0
Atom residue num                           I   N=          17
           0           0           0           0           0           0
           0           0           0           0           0           0
           0           0           0           0           0
Nuclear spins                              I   N=          17
           0           0           2           0           0           0
           0           2           0           1           1           1
           1           1           1           1           1
Nuclear ZEff                               R   N=          17
 -1.36000000E+01 -3.60000000E+00 -4.55000000E+00 -3.60000000E+00 -5.60000000E+00
 -3.60000000E+00 -3.60000000E+00 -4.55000000E+00 -3.60000000E+00 -1.00000000E+00
 -1.00000000E+00 -1.00000000E+00 -1.00000000E+00 -1.00000000E+00 -1.00000000E+00
 -1.00000000E+00 -1.00000000E+00
Nuclear ZNuc                               R   N=          17
  1.60000000E+01  6.00000000E+00  7.00000000E+00  6.00000000E+00  8.00000000E+00
  6.00000000E+00  6.00000000E+00  7.00000000E+00  6.00000000E+00  1.00000000E+00
  1.00000000E+00  1.00000000E+00  1.00000000E+00  1.00000000E+00  1.00000000E+00
  1.00000000E+00  1.00000000E+00
Nuclear QMom                               R   N=          17
  0.00000000E+00  0.00000000E+00  2.04400000E+00  0.00000000E+00  0.00000000E+00
  0.00000000E+00  0.00000000E+00  2.04400000E+00  0.00000000E+00  0.00000000E+00
  0.00000000E+00  0.00000000E+00  0.00000000E+00  0.00000000E+00  0.00000000E+00
  0.00000000E+00  0.00000000E+00
Nuclear GFac                               R   N=          17
  0.00000000E+00  0.00000000E+00  4.03761000E-01  0.00000000E+00  0.00000000E+00
  0.00000000E+00  0.00000000E+00  4.03761000E-01  0.00000000E+00  2.79284600E+00
  2.79284600E+00  2.79284600E+00  2.79284600E+00  2.79284600E+00  2.79284600E+00
  2.79284600E+00  2.79284600E+00
MicOpt                                     I   N=          17
          -1          -1          -1          -1          -1          -1
          -1          -1          -1          -1          -1          -1
          -1          -1          -1          -1          -1
Number of residues                         I                0
Number of secondary structures             I                0
SymInf integers                            I   N=          26
           1           1           1           1           1           0
           0           0           0           0           0           0
           0           0           0           0           0           0
           0           0           0           0           0           0
           0           0
RotTr to input orientation                 R   N=          12
  1.00000000E+00 -3.04122067E-07  0.00000000E+00  3.04122067E-07  1.00000000E+00
  0.00000000E+00  0.00000000E+00  0.00000000E+00  1.00000000E+00 -1.24324087E-06
  4.97296348E-07  3.97837079E-06
Number of contracted shells                I               53
Number of primitive shells                 I              137
Pure/Cartesian d shells                    I                1
Pure/Cartesian f shells                    I                0
Highest angular momentum                   I                2
Largest degree of contraction              I                6
Shell types                                I   N=          53
           0          -1          -1          -1           2           0
          -1          -1           2           0          -1          -1
           2           0          -1          -1           2           0
          -1          -1           2           0          -1          -1
           2           0          -1          -1           2           0
          -1          -1           2           0          -1          -1
           2           0           0           0           0           0
           0           0           0           0           0           0
           0           0           0           0           0
Number of primitives per shell             I   N=          53
           6           6           3           1           1           6
           3           1           1           6           3           1
           1           6           3           1           1           6
           3           1           1           6           3           1
           1           6           3           1           1           6
           3           1           1           6           3           1
           1           3           1           3           1           3
           1           3           1           3           1           3
           1           3           1           3           1
Shell to atom map                          I   N=          53
           1           1           1           1           1           2
           2           2           2           3           3           3
           3           4           4           4           4           5
           5           5           5           6           6           6
           6           7           7           7           7           8
           8           8           8           9           9           9
           9          10          10          11          11          12
          12          13          13          14          14          15
          15          16          16          17          17
Primitive exponents                        R   N=         137
  2.19171000E+04  3.30149000E+03  7.54146000E+02  2.12711000E+02  6.79896000E+01
  2.30515000E+01  4.23735000E+02  1.00710000E+02  3.21599000E+01  1.18079000E+01
  4.63110000E+00  1.87025000E+00  2.61584000E+00  9.22167000E-01  3.41287000E-01
  1.17167000E-01  6.50000000E-01  3.04752488E+03  4.57369518E+02  1.03948685E+02
  2.92101553E+01  9.28666296E+00  3.16392696E+00  7.86827235E+00  1.88128854E+00
  5.44249258E-01  1.68714478E-01  8.00000000E-01  4.17351146E+03  6.27457911E+02
  1.42902093E+02  4.02343293E+01  1.28202129E+01  4.39043701E+00  1.16263619E+01
  2.71627981E+00  7.72218397E-01  2.12031498E-01  8.00000000E-01  3.04752488E+03
  4.57369518E+02  1.03948685E+02  2.92101553E+01  9.28666296E+00  3.16392696E+00
  7.86827235E+00  1.88128854E+00  5.44249258E-01  1.68714478E-01  8.00000000E-01
  5.48467166E+03  8.25234946E+02  1.88046958E+02  5.29645000E+01  1.68975704E+01
  5.79963534E+00  1.55396162E+01  3.59993359E+00  1.01376175E+00  2.70005823E-01
  8.00000000E-01  3.04752488E+03  4.57369518E+02  1.03948685E+02  2.92101553E+01
  9.28666296E+00  3.16392696E+00  7.86827235E+00  1.88128854E+00  5.44249258E-01
  1.68714478E-01  8.00000000E-01  3.04752488E+03  4.57369518E+02  1.03948685E+02
  2.92101553E+01  9.28666296E+00  3.16392696E+00  7.86827235E+00  1.88128854E+00
  5.44249258E-01  1.68714478E-01  8.00000000E-01  4.17351146E+03  6.27457911E+02
  1.42902093E+02  4.02343293E+01  1.28202129E+01  4.39043701E+00  1.16263619E+01
  2.71627981E+00  7.72218397E-01  2.12031498E-01  8.00000000E-01  3.04752488E+03
  4.57369518E+02  1.03948685E+02  2.92101553E+01  9.28666296E+00  3.16392696E+00
  7.86827235E+00  1.88128854E+00  5.44249258E-01  1.68714478E-01  8.00000000E-01
  1.87311370E+01  2.82539436E+00  6.40121692E-01  1.61277759E-01  1.87311370E+01
  2.82539436E+00  6.40121692E-01  1.61277759E-01  1.87311370E+01  2.82539436E+00
  6.40121692E-01  1.61277759E-01  1.87311370E+01  2.82539436E+00  6.40121692E-01
  1.61277759E-01  1.87311370E+01  2.82539436E+00  6.40121692E-01  1.61277759E-01
  1.87311370E+01  2.82539436E+00  6.40121692E-01  1.61277759E-01  1.87311370E+01
  2.82539436E+00  6.40121692E-01  1.61277759E-01  1.87311370E+01  2.82539436E+00
  6.40121692E-01  1.61277759E-01
Contraction coefficients                   R   N=         137
  1.86924085E-03  1.42303065E-02  6.96962317E-02  2.38487108E-01  4.83307220E-01
  3.38074154E-01 -2.37677050E-03 -3.16930067E-02 -1.13317024E-01  5.60900118E-02
  5.92255124E-01  4.55006095E-01 -2.50373114E-01  6.69567631E-02  1.05450627E+00
  1.00000000E+00  1.00000000E+00  1.83473713E-03  1.40373228E-02  6.88426223E-02
  2.32184443E-01  4.67941348E-01  3.62311985E-01 -1.19332420E-01 -1.60854152E-01
  1.14345644E+00  1.00000000E+00  1.00000000E+00  1.83477216E-03  1.39946270E-02
  6.85865518E-02  2.32240873E-01  4.69069948E-01  3.60455199E-01 -1.14961182E-01
 -1.69117479E-01  1.14585195E+00  1.00000000E+00  1.00000000E+00  1.83473713E-03
  1.40373228E-02  6.88426223E-02  2.32184443E-01  4.67941348E-01  3.62311985E-01
 -1.19332420E-01 -1.60854152E-01  1.14345644E+00  1.00000000E+00  1.00000000E+00
  1.83107443E-03  1.39501722E-02  6.84450781E-02  2.32714336E-01  4.70192898E-01
  3.58520853E-01 -1.10777550E-01 -1.48026263E-01  1.13076702E+00  1.00000000E+00
  1.00000000E+00  1.83473713E-03  1.40373228E-02  6.88426223E-02  2.32184443E-01
  4.67941348E-01  3.62311985E-01 -1.19332420E-01 -1.60854152E-01  1.14345644E+00
  1.00000000E+00  1.00000000E+00  1.83473713E-03  1.40373228E-02  6.88426223E-02
  2.32184443E-01  4.67941348E-01  3.62311985E-01 -1.19332420E-01 -1.60854152E-01
  1.14345644E+00  1.00000000E+00  1.00000000E+00  1.83477216E-03  1.39946270E-02
  6.85865518E-02  2.32240873E-01  4.69069948E-01  3.60455199E-01 -1.14961182E-01
 -1.69117479E-01  1.14585195E+00  1.00000000E+00  1.00000000E+00  1.83473713E-03
  1.40373228E-02  6.88426223E-02  2.32184443E-01  4.67941348E-01  3.62311985E-01
 -1.19332420E-01 -1.60854152E-01  1.14345644E+00  1.00000000E+00  1.00000000E+00
  3.34946043E-02  2.34726953E-01  8.13757326E-01  1.00000000E+00  3.34946043E-02
  2.34726953E-01  8.13757326E-01  1.00000000E+00  3.34946043E-02  2.34726953E-01
  8.13757326E-01  1.00000000E+00  3.34946043E-02  2.34726953E-01  8.13757326E-01
  1.00000000E+00  3.34946043E-02  2.34726953E-01  8.13757326E-01  1.00000000E+00
  3.34946043E-02  2.34726953E-01  8.13757326E-01  1.00000000E+00  3.34946043E-02
  2.34726953E-01  8.13757326E-01  1.00000000E+00  3.34946043E-02  2.34726953E-01
  8.13757326E-01  1.00000000E+00
P(S=P) Contraction coefficients            R   N=         137
  0.00000000E+00  0.00000000E+00  0.00000000E+00  0.00000000E+00  0.00000000E+00
  0.00000000E+00  4.06100998E-03  3.06812999E-02  1.30451999E-01  3.27204999E-01
  4.52850998E-01  2.56041999E-01 -1.45104895E-02  3.10262776E-01  7.54482456E-01
  1.00000000E+00  0.00000000E+00  0.00000000E+00  0.00000000E+00  0.00000000E+00
  0.00000000E+00  0.00000000E+00  0.00000000E+00  6.89990666E-02  3.16423961E-01
  7.44308291E-01  1.00000000E+00  0.00000000E+00  0.00000000E+00  0.00000000E+00
  0.00000000E+00  0.00000000E+00  0.00000000E+00  0.00000000E+00  6.75797439E-02
  3.23907296E-01  7.40895140E-01  1.00000000E+00  0.00000000E+00  0.00000000E+00
  0.00000000E+00  0.00000000E+00  0.00000000E+00  0.00000000E+00  0.00000000E+00
  6.89990666E-02  3.16423961E-01  7.44308291E-01  1.00000000E+00  0.00000000E+00
  0.00000000E+00  0.00000000E+00  0.00000000E+00  0.00000000E+00  0.00000000E+00
  0.00000000E+00  7.08742682E-02  3.39752839E-01  7.27158577E-01  1.00000000E+00
  0.00000000E+00  0.00000000E+00  0.00000000E+00  0.00000000E+00  0.00000000E+00
  0.00000000E+00  0.00000000E+00  6.89990666E-02  3.16423961E-01  7.44308291E-01
  1.00000000E+00  0.00000000E+00  0.00000000E+00  0.00000000E+00  0.00000000E+00
  0.00000000E+00  0.00000000E+00  0.00000000E+00  6.89990666E-02  3.16423961E-01
  7.44308291E-01  1.00000000E+00  0.00000000E+00  0.00000000E+00  0.00000000E+00
  0.00000000E+00  0.00000000E+00  0.00000000E+00  0.00000000E+00  6.75797439E-02
  3.23907296E-01  7.40895140E-01  1.00000000E+00  0.00000000E+00  0.00000000E+00
  0.00000000E+00  0.00000000E+00  0.00000000E+00  0.00000000E+00  0.00000000E+00
  6.89990666E-02  3.16423961E-01  7.44308291E-01  1.00000000E+00  0.00000000E+00
  0.00000000E+00  0.00000000E+00  0.00000000E+00  0.00000000E+00  0.00000000E+00
  0.00000000E+00  0.00000000E+00  0.00000000E+00  0.00000000E+00  0.00000000E+00
  0.00000000E+00  0.00000000E+00  0.00000000E+00  0.00000000E+00  0.00000000E+00
  0.00000000E+00  0.00000000E+00  0.00000000E+00  0.00000000E+00  0.00000000E+00
  0.00000000E+00  0.00000000E+00  0.00000000E+00  0.00000000E+00  0.00000000E+00
  0.00000000E+00  0.00000000E+00  0.00000000E+00  0.00000000E+00  0.00000000E+00
  0.00000000E+00  0.00000000E+00
Coordinates of each shell                  R   N=         159
 -4.04922745E+00 -2.83491217E+00  1.82696733E-02 -4.04922745E+00 -2.83491217E+00
  1.82696733E-02 -4.04922745E+00 -2.83491217E+00  1.82696733E-02 -4.04922745E+00
 -2.83491217E+00  1.82696733E-02 -4.04922745E+00 -2.83491217E+00  1.82696733E-02
 -1.68504840E+00 -7.97370948E-01 -7.38544753E-02 -1.68504840E+00 -7.97370948E-01
 -7.38544753E-02 -1.68504840E+00 -7.97370948E-01 -7.38544753E-02 -1.68504840E+00
 -7.97370948E-01 -7.38544753E-02  8.70050496E-01 -1.47181342E+00 -3.29610009E-01
  8.70050496E-01 -1.47181342E+00 -3.29610009E-01  8.70050496E-01 -1.47181342E+00
 -3.29610009E-01  8.70050496E-01 -1.47181342E+00 -3.29610009E-01  2.31034240E+00
  6.73819850E-01 -3.39228715E-01  2.31034240E+00  6.73819850E-01 -3.39228715E-01
  2.31034240E+00  6.73819850E-01 -3.39228715E-01  2.31034240E+00  6.73819850E-01
 -3.39228715E-01  4.86413718E+00  6.94966662E-01 -6.07645414E-01  4.86413718E+00
  6.94966662E-01 -6.07645414E-01  4.86413718E+00  6.94966662E-01 -6.07645414E-01
  4.86413718E+00  6.94966662E-01 -6.07645414E-01  6.11723407E+00 -1.29109732E+00
  7.02596195E-01  6.11723407E+00 -1.29109732E+00  7.02596195E-01  6.11723407E+00
 -1.29109732E+00  7.02596195E-01  6.11723407E+00 -1.29109732E+00  7.02596195E-01
  7.93609808E-01  2.69121541E+00 -1.25538485E-01  7.93609808E-01  2.69121541E+00
 -1.25538485E-01  7.93609808E-01  2.69121541E+00 -1.25538485E-01  7.93609808E-01
  2.69121541E+00 -1.25538485E-01 -1.68108079E+00  1.86799327E+00  6.11664563E-02
 -1.68108079E+00  1.86799327E+00  6.11664563E-02 -1.68108079E+00  1.86799327E+00
  6.11664563E-02 -1.68108079E+00  1.86799327E+00  6.11664563E-02 -3.81348606E+00
  3.55712431E+00  3.10855969E-01 -3.81348606E+00  3.55712431E+00  3.10855969E-01
 -3.81348606E+00  3.55712431E+00  3.10855969E-01 -3.81348606E+00  3.55712431E+00
  3.10855969E-01  1.48882296E+00 -3.26021225E+00 -5.30166643E-01  1.48882296E+00
 -3.26021225E+00 -5.30166643E-01  5.78740183E+00 -3.10948638E+00 -2.27111264E-01
  5.78740183E+00 -3.10948638E+00 -2.27111264E-01  8.14836829E+00 -9.08956285E-01
  6.48285466E-01  8.14836829E+00 -9.08956285E-01  6.48285466E-01  5.53011509E+00
 -1.37074945E+00  2.68643068E+00  5.53011509E+00 -1.37074945E+00  2.68643068E+00
  1.30120854E+00  4.66484553E+00 -9.74571546E-02  1.30120854E+00  4.66484553E+00
 -9.74571546E-02 -3.55568997E+00  4.71779418E+00  2.00219865E+00 -3.55568997E+00
  4.71779418E+00  2.00219865E+00 -3.89858079E+00  4.77682912E+00 -1.35622262E+00
 -3.89858079E+00  4.77682912E+00 -1.35622262E+00 -5.58580318E+00  2.51339024E+00
  4.73013368E-01 -5.58580318E+00  2.51339024E+00  4.73013368E-01
Num ILSW                                   I              100
ILSW                                       I   N=         100
           0           1           0           0           2           0
           0           0           0           0         402          -1
           5           0           0           0           0           0
           0           0           1           0           0           0
           1           0           0           0           0           0
           0           0      100000           0          -1           0
           0           0           0           0           0           0
           0           0           0           1           0           0
           0 -2000000000           1           0           0           0
           0           0           4          52           0           0
           0           0           5           0           0           0
           0           0           0           0           0           1
           0           0           0           0           0           0
           0           0           0           0           0           0
           0           0           0           0           0           0
           0           0           0           0           0           0
           0           0           0           0
Num RLSW                                   I               52
RLSW                                       R   N=          52
  8.00000000E-01  7.20000000E-01  1.00000000E+00  8.10000000E-01  2.00000000E-01
  0.00000000E+00  0.00000000E+00  1.00000000E+00  0.00000000E+00  0.00000000E+00
  0.00000000E+00  0.00000000E+00  1.00000000E+00  0.00000000E+00  0.00000000E+00
  0.00000000E+00  0.00000000E+00  1.00000000E+00  0.00000000E+00  0.00000000E+00
  0.00000000E+00  0.00000000E+00  1.00000000E+00  0.00000000E+00  0.00000000E+00
  0.00000000E+00  0.00000000E+00  1.00000000E+00  0.00000000E+00  0.00000000E+00
  0.00000000E+00  0.00000000E+00  1.00000000E+00  0.00000000E+00  0.00000000E+00
  0.00000000E+00  0.00000000E+00  0.00000000E+00  1.00000000E+00  1.00000000E+00
  0.00000000E+00  1.00000000E+00  0.00000000E+00  0.00000000E+00  0.00000000E+00
  0.00000000E+00  0.00000000E+00  0.00000000E+00  0.00000000E+00  0.00000000E+00
  0.00000000E+00  0.00000000E+00
MxBond                                     I                4
NBond                                      I   N=          17
           1           3           3           3           2           4
           3           3           4           1           1           1
           1           1           1           1           1
IBond                                      I   N=          68
           2           0           0           0           1           3
           8           0           2           4          10           0
           3           5           7           0           4           6
           0           0           5          11          12          13
           4           8          14           0           2           7
           9           0           8          15          16          17
           3           0           0           0           6           0
           0           0           6           0           0           0
           6           0           0           0           7           0
           0           0           9           0           0           0
           9           0           0           0           9           0
           0           0
RBond                                      R   N=          68
  2.00000000E+00  0.00000000E+00  0.00000000E+00  0.00000000E+00  2.00000000E+00
  1.00000000E+00  1.00000000E+00  0.00000000E+00  1.00000000E+00  1.50000000E+00
  1.00000000E+00  0.00000000E+00  1.50000000E+00  1.50000000E+00  2.00000000E+00
  0.00000000E+00  1.50000000E+00  1.00000000E+00  0.00000000E+00  0.00000000E+00
  1.00000000E+00  1.00000000E+00  1.00000000E+00  1.00000000E+00  2.00000000E+00
  1.00000000E+00  1.00000000E+00  0.00000000E+00  1.00000000E+00  1.00000000E+00
  1.00000000E+00  0.00000000E+00  1.00000000E+00  1.00000000E+00  1.00000000E+00
  1.00000000E+00  1.00000000E+00  0.00000000E+00  0.00000000E+00  0.00000000E+00
  1.00000000E+00  0.00000000E+00  0.00000000E+00  0.00000000E+00  1.00000000E+00
  0.00000000E+00  0.00000000E+00  0.00000000E+00  1.00000000E+00  0.00000000E+00
  0.00000000E+00  0.00000000E+00  1.00000000E+00  0.00000000E+00  0.00000000E+00
  0.00000000E+00  1.00000000E+00  0.00000000E+00  0.00000000E+00  0.00000000E+00
  1.00000000E+00  0.00000000E+00  0.00000000E+00  0.00000000E+00  1.00000000E+00
  0.00000000E+00  0.00000000E+00  0.00000000E+00
Virial Ratio                               R      2.006283449653273E+00
SCF Energy                                 R     -7.775105511628675E+02
Total Energy                               R     -7.775105511628675E+02
RMS Density                                R      2.894266582402640E-09
Job Status                                 I                1
Nuclear derivative order                   I                0
External E-field                           R   N=          35
  0.00000000E+00  0.00000000E+00  0.00000000E+00  0.00000000E+00  0.00000000E+00
  0.00000000E+00  0.00000000E+00  0.00000000E+00  0.00000000E+00  0.00000000E+00
  0.00000000E+00  0.00000000E+00  0.00000000E+00  0.00000000E+00  0.00000000E+00
  0.00000000E+00  0.00000000E+00  0.00000000E+00  0.00000000E+00  0.00000000E+00
  0.00000000E+00  0.00000000E+00  0.00000000E+00  0.00000000E+00  0.00000000E+00
  0.00000000E+00  0.00000000E+00  0.00000000E+00  0.00000000E+00  0.00000000E+00
  0.00000000E+00  0.00000000E+00  0.00000000E+00  0.00000000E+00  0.00000000E+00
IOpCl                                      I                0
IROHF                                      I                0
Alpha Orbital Energies                     R   N=         155
 -8.92887861E+01 -1.95905624E+01 -1.48459967E+01 -1.48090090E+01 -1.07214901E+01
 -1.07116437E+01 -1.06677444E+01 -1.05682182E+01 -1.05591901E+01 -8.34594658E+00
 -6.31190118E+00 -6.30918240E+00 -6.29830932E+00 -1.48377734E+00 -1.44076512E+00
 -1.33353240E+00 -1.21442102E+00 -1.14620383E+00 -1.09615002E+00 -1.05659518E+00
 -1.01876166E+00 -9.89952985E-01 -9.42135727E-01 -8.88150957E-01 -8.81406319E-01
 -8.71444250E-01 -8.48920066E-01 -8.22999539E-01 -7.95697244E-01 -7.79472852E-01
 -7.74652104E-01 -7.46711187E-01 -7.06942706E-01 -6.96357724E-01 -6.91965370E-01
 -6.51513679E-01 -6.22995931E-01 -5.52685614E-01 -3.99642441E-01 -3.53451603E-01
 -2.90060666E-01 -2.67479185E-01 -2.59660582E-01 -2.20734526E-01 -2.09645762E-01
 -1.98968915E-01 -1.79028468E-01 -1.66956264E-01 -1.55517623E-01 -1.53162036E-01
 -1.38319727E-01 -1.24049980E-01 -1.15944740E-01 -1.01590268E-01 -7.68065588E-02
 -6.05927516E-02  5.06898683E-03  2.93216922E-02  3.43371053E-02  5.99271361E-02
  7.81336085E-02  1.15748774E-01  1.29247312E-01  1.35406410E-01  1.55748629E-01
  1.73025169E-01  1.88479658E-01  2.01547209E-01  2.14969677E-01  2.25545526E-01
  2.63041691E-01  2.92568223E-01  2.98119594E-01  3.47186258E-01  3.57557496E-01
  3.72179829E-01  3.91926606E-01  3.97881420E-01  4.40931228E-01  4.56248852E-01
  4.68387604E-01  4.90254993E-01  5.01144495E-01  5.15078885E-01  5.22800196E-01
  5.35768035E-01  5.67449545E-01  5.72544142E-01  5.79118899E-01  5.95148262E-01
  6.27831795E-01  6.45999500E-01  6.70990123E-01  6.84333586E-01  6.92581683E-01
  6.97177146E-01  7.78747226E-01  8.18229934E-01  8.55693605E-01  8.84305357E-01
  9.05814662E-01  9.12128654E-01  9.31227336E-01  9.59244827E-01  1.01091016E+00
  1.03555015E+00  1.11017904E+00  1.13079168E+00  1.14185205E+00  1.18035490E+00
  1.20754196E+00  1.36417455E+00  1.39757428E+00  1.40805198E+00  1.46489384E+00
  1.49625813E+00  1.55368762E+00  1.55989324E+00  1.61126478E+00  1.62732620E+00
  1.64645604E+00  1.69196526E+00  1.70544846E+00  1.73017512E+00  1.73469348E+00
  1.78875152E+00  1.81311935E+00  1.83109604E+00  1.86951676E+00  1.92615837E+00
  1.93703487E+00  1.97287822E+00  1.99302832E+00  2.02414981E+00  2.05306749E+00
  2.11319798E+00  2.17878158E+00  2.20168722E+00  2.27475759E+00  2.29869399E+00
  2.35500912E+00  2.45249340E+00  2.47059524E+00  2.58727592E+00  2.74243884E+00
  2.78259734E+00  3.52804111E+00  3.52983750E+00  3.59929700E+00  3.71175384E+00
  3.83010779E+00  3.89686416E+00  4.00085430E+00  4.01730032E+00  4.22469029E+00
Alpha MO coefficients                      R   N=       24025
  9.96113479E-01  1.48480292E-02  6.76636016E-05  6.36344083E-05 -2.51129944E-06
 -2.41893028E-02 -1.43936182E-04 -1.41790404E-04  4.63601506E-06  2.54513461E-03
 -4.76217387E-05  8.75448338E-06  3.25920771E-06  8.48033092E-03  8.48852950E-03
  8.48505009E-03 -3.67533745E-06 -1.58501694E-07  3.03285483E-07  3.42979186E-05
  2.33483090E-04  1.36164685E-05 -4.62872783E-06 -1.81069707E-06 -6.79620862E-04
 -7.80659615E-04 -7.44090279E-04  3.14102110E-05 -8.41875896E-05 -5.87853482E-05
  3.99750527E-05 -1.39230589E-04  5.40699864E-06  6.30101614E-06 -1.75386086E-05
 -6.23379081E-05 -4.08141457E-06 -9.85161161E-06  1.39549998E-06  6.98793634E-04
 -4.19157754E-06  3.92320903E-04  1.84933412E-05 -5.33640619E-05 -1.43955542E-05
 -4.99224323E-05 -3.10981570E-05 -1.39813187E-06  4.97971071E-06 -1.16771050E-05
 -3.23864730E-05  2.45154173E-05  2.25570829E-05  2.46168455E-06 -1.24076438E-04
 -1.00355052E-04  1.73183074E-04  9.08963904E-06 -3.54679104E-05 -1.73743554E-05
 -2.26719358E-05 -7.85557058E-06  1.51818466E-06  1.61859555E-06 -2.08131303E-06
 -1.23796610E-05 -2.17210357E-06  1.26708549E-06  2.23335725E-06  8.40095061E-05
 -4.78816254E-05 -1.28975098E-05 -8.64900172E-06  9.27550398E-06 -1.07270258E-05
 -6.10506678E-06  3.24214007E-06 -1.45477257E-06  1.51133679E-06 -1.14980466E-06
 -6.85986676E-06  7.35002342E-06 -7.89642297E-07 -1.86098025E-07  7.83813552E-06
 -5.33670012E-05  1.94233484E-05  2.76260031E-06 -2.01691420E-07  2.58671262E-07
 -1.07680256E-06 -2.58253459E-06  1.46760481E-06 -3.61360400E-07 -1.11110327E-05
 -3.23508038E-05  3.14866598E-05  2.30020186E-05 -2.51792156E-06 -1.66588682E-04
 -1.42208910E-05  2.72677464E-05  6.84461158E-06 -1.38953058E-05 -2.52398114E-05
 -2.57851192E-05 -1.32238744E-05 -1.80482056E-06  6.47357279E-07 -1.35102539E-05
 -5.35249512E-05 -2.00937160E-05  7.29404174E-06  2.63463509E-06  6.94998465E-04
  3.22327740E-04 -2.84005548E-04 -4.66418706E-05 -1.87464683E-05 -1.54666792E-05
 -3.50044487E-05 -5.43781853E-05 -4.47309072E-06  5.35044516E-06  4.49278217E-06
  2.05204063E-05  1.36603699E-05 -2.14152163E-05 -3.23045011E-06  1.69923433E-04