radical_cation                                                          
SP        RB3LYP                                                      6-31G(d)            
Number of atoms                            I               17
Info1-9                                    I   N=           9
          26          26           0           0           0         110
           1          18        -502
Full Title                                 C   N=           2
radical_cation          
Route                                      C   N=           2
# b3lyp/6-31G*          
Charge                                     I                0
Multiplicity                               I                1
Number of electrons                        I               76
Number of alpha electrons                  I               38
Number of beta electrons                   I               38
Number of basis functions                  I              155
Number of independent functions            I              155
Number of point charges in /Mol/           I                0
Number of translation vectors              I                0
Atomic numbers                             I   N=          17
          16           6           7           6           8           6
           6           7           6           1           1           1
           1           1           1           1           1
Nuclear charges                            R   N=          17
  1.60000000E+01  6.00000000E+00  7.00000000E+00  6.00000000E+00  8.00000000E+00
  6.00000000E+00  6.00000000E+00  7.00000000E+00  6.00000000E+00  1.00000000E+00
  1.00000000E+00  1.00000000E+00  1.00000000E+00  1.00000000E+00  1.00000000E+00
  1.00000000E+00  1.00000000E+00
Current cartesian coordinates              R   N=          51
 -4.04922955E+00 -2.83491044E+00  1.82736516E-02 -1.68504989E+00 -7.97369938E-01
 -7.38504969E-02  8.70048805E-01 -1.47181319E+00 -3.29606031E-01  2.31034137E+00
  6.73819644E-01 -3.39224737E-01  4.86413615E+00  6.94965680E-01 -6.07641435E-01
  6.11723244E+00 -1.29109868E+00  7.02600173E-01  7.93609383E-01  2.69121567E+00
 -1.25534506E-01 -1.68108146E+00  1.86799427E+00  6.11704347E-02 -3.81348622E+00
  3.55712597E+00  3.10859947E-01  1.48882073E+00 -3.26021220E+00 -5.30162664E-01
  5.78739964E+00 -3.10948765E+00 -2.27107286E-01  8.14836677E+00 -9.08958266E-01
  6.48289444E-01  5.53011343E+00 -1.37075064E+00  2.68643466E+00  1.30120872E+00
  4.66484563E+00 -9.74531762E-02 -3.55568978E+00  4.71779576E+00  2.00220262E+00
 -3.89858058E+00  4.77683080E+00 -1.35621865E+00 -5.58580366E+00  2.51339244E+00
  4.73017346E-01
Number of symbols in /Mol/                 I                0
Int Atom Types                             I   N=          17
           0           0           0           0           0           0
           0           0           0           0           0           0
           0           0           0           0           0
Force Field                                I                0
Atom Types                                 C   N=          17
                                                            
                                                            
                                                            
                        
MM charges                                 R   N=          17
  0.00000000E+00  0.00000000E+00  0.00000000E+00  0.00000000E+00  0.00000000E+00
  0.00000000E+00  0.00000000E+00  0.00000000E+00  0.00000000E+00  0.00000000E+00
  0.00000000E+00  0.00000000E+00  0.00000000E+00  0.00000000E+00  0.00000000E+00
  0.00000000E+00  0.00000000E+00
Integer atomic weights                     I   N=          17
          32          12          14          12          16          12
          12          14          12           1           1           1
           1           1           1           1           1
Real atomic weights                        R   N=          17
  3.19720718E+01  1.20000000E+01  1.40030740E+01  1.20000000E+01  1.59949146E+01
  1.20000000E+01  1.20000000E+01  1.40030740E+01  1.20000000E+01  1.00782504E+00
  1.00782504E+00  1.00782504E+00  1.00782504E+00  1.00782504E+00  1.00782504E+00
  1.00782504E+00  1.00782504E+00
Atom fragment info                         I   N=          17
           0           0           0           0           0           0
           0           0           0           0           0           0
           0           0           0           0           0
Atom residue num                           I   N=          17
           0           0           0           0           0           0
           0           0           0           0           0           0
           0           0           0           0           0
Nuclear spins                              I   N=          17
           0           0           2           0           0           0
           0           2           0           1           1           1
           1           1           1           1           1
Nuclear ZEff                               R   N=          17
 -1.36000000E+01 -3.60000000E+00 -4.55000000E+00 -3.60000000E+00 -5.60000000E+00
 -3.60000000E+00 -3.60000000E+00 -4.55000000E+00 -3.60000000E+00 -1.00000000E+00
 -1.00000000E+00 -1.00000000E+00 -1.00000000E+00 -1.00000000E+00 -1.00000000E+00
 -1.00000000E+00 -1.00000000E+00
Nuclear ZNuc                               R   N=          17
  1.60000000E+01  6.00000000E+00  7.00000000E+00  6.00000000E+00  8.00000000E+00
  6.00000000E+00  6.00000000E+00  7.00000000E+00  6.00000000E+00  1.00000000E+00
  1.00000000E+00  1.00000000E+00  1.00000000E+00  1.00000000E+00  1.00000000E+00
  1.00000000E+00  1.00000000E+00
Nuclear QMom                               R   N=          17
  0.00000000E+00  0.00000000E+00  2.04400000E+00  0.00000000E+00  0.00000000E+00
  0.00000000E+00  0.00000000E+00  2.04400000E+00  0.00000000E+00  0.00000000E+00
  0.00000000E+00  0.00000000E+00  0.00000000E+00  0.00000000E+00  0.00000000E+00
  0.00000000E+00  0.00000000E+00
Nuclear GFac                               R   N=          17
  0.00000000E+00  0.00000000E+00  4.03761000E-01  0.00000000E+00  0.00000000E+00
  0.00000000E+00  0.00000000E+00  4.03761000E-01  0.00000000E+00  2.79284600E+00
  2.79284600E+00  2.79284600E+00  2.79284600E+00  2.79284600E+00  2.79284600E+00
  2.79284600E+00  2.79284600E+00
MicOpt                                     I   N=          17
          -1          -1          -1          -1          -1          -1
          -1          -1          -1          -1          -1          -1
          -1          -1          -1          -1          -1
Number of residues                         I                0
Number of secondary structures             I                0
SymInf integers                            I   N=          26
           1           1           1           1           1           0
           0           0           0           0           0           0
           0           0           0           0           0           0
           0           0           0           0           0           0
           0           0
RotTr to input orientation                 R   N=          12
  1.00000000E+00 -3.04122067E-07  0.00000000E+00  3.04122067E-07  1.00000000E+00
  0.00000000E+00  0.00000000E+00  0.00000000E+00  1.00000000E+00 -1.24324087E-06
  4.97296348E-07  3.97837079E-06
Number of contracted shells                I               53
Number of primitive shells                 I              137
Pure/Cartesian d shells                    I                1
Pure/Cartesian f shells                    I                0
Highest angular momentum                   I                2
Largest degree of contraction              I                6
Shell types                                I   N=          53
           0          -1          -1          -1           2           0
          -1          -1           2           0          -1          -1
           2           0          -1          -1           2           0
          -1          -1           2           0          -1          -1
           2           0          -1          -1           2           0
          -1          -1           2           0          -1          -1
           2           0           0           0           0           0
           0           0           0           0           0           0
           0           0           0           0           0
Number of primitives per shell             I   N=          53
           6           6           3           1           1           6
           3           1           1           6           3           1
           1           6           3           1           1           6
           3           1           1           6           3           1
           1           6           3           1           1           6
           3           1           1           6           3           1
           1           3           1           3           1           3
           1           3           1           3           1           3
           1           3           1           3           1
Shell to atom map                          I   N=          53
           1           1           1           1           1           2
           2           2           2           3           3           3
           3           4           4           4           4           5
           5           5           5           6           6           6
           6           7           7           7           7           8
           8           8           8           9           9           9
           9          10          10          11          11          12
          12          13          13          14          14          15
          15          16          16          17          17
Primitive exponents                        R   N=         137
  2.19171000E+04  3.30149000E+03  7.54146000E+02  2.12711000E+02  6.79896000E+01
  2.30515000E+01  4.23735000E+02  1.00710000E+02  3.21599000E+01  1.18079000E+01
  4.63110000E+00  1.87025000E+00  2.61584000E+00  9.22167000E-01  3.41287000E-01
  1.17167000E-01  6.50000000E-01  3.04752488E+03  4.57369518E+02  1.03948685E+02
  2.92101553E+01  9.28666296E+00  3.16392696E+00  7.86827235E+00  1.88128854E+00
  5.44249258E-01  1.68714478E-01  8.00000000E-01  4.17351146E+03  6.27457911E+02
  1.42902093E+02  4.02343293E+01  1.28202129E+01  4.39043701E+00  1.16263619E+01
  2.71627981E+00  7.72218397E-01  2.12031498E-01  8.00000000E-01  3.04752488E+03
  4.57369518E+02  1.03948685E+02  2.92101553E+01  9.28666296E+00  3.16392696E+00
  7.86827235E+00  1.88128854E+00  5.44249258E-01  1.68714478E-01  8.00000000E-01
  5.48467166E+03  8.25234946E+02  1.88046958E+02  5.29645000E+01  1.68975704E+01
  5.79963534E+00  1.55396162E+01  3.59993359E+00  1.01376175E+00  2.70005823E-01
  8.00000000E-01  3.04752488E+03  4.57369518E+02  1.03948685E+02  2.92101553E+01
  9.28666296E+00  3.16392696E+00  7.86827235E+00  1.88128854E+00  5.44249258E-01
  1.68714478E-01  8.00000000E-01  3.04752488E+03  4.57369518E+02  1.03948685E+02
  2.92101553E+01  9.28666296E+00  3.16392696E+00  7.86827235E+00  1.88128854E+00
  5.44249258E-01  1.68714478E-01  8.00000000E-01  4.17351146E+03  6.27457911E+02
  1.42902093E+02  4.02343293E+01  1.28202129E+01  4.39043701E+00  1.16263619E+01
  2.71627981E+00  7.72218397E-01  2.12031498E-01  8.00000000E-01  3.04752488E+03
  4.57369518E+02  1.03948685E+02  2.92101553E+01  9.28666296E+00  3.16392696E+00
  7.86827235E+00  1.88128854E+00  5.44249258E-01  1.68714478E-01  8.00000000E-01
  1.87311370E+01  2.82539436E+00  6.40121692E-01  1.61277759E-01  1.87311370E+01
  2.82539436E+00  6.40121692E-01  1.61277759E-01  1.87311370E+01  2.82539436E+00
  6.40121692E-01  1.61277759E-01  1.87311370E+01  2.82539436E+00  6.40121692E-01
  1.61277759E-01  1.87311370E+01  2.82539436E+00  6.40121692E-01  1.61277759E-01
  1.87311370E+01  2.82539436E+00  6.40121692E-01  1.61277759E-01  1.87311370E+01
  2.82539436E+00  6.40121692E-01  1.61277759E-01  1.87311370E+01  2.82539436E+00
  6.40121692E-01  1.61277759E-01
Contraction coefficients                   R   N=         137
  1.86924085E-03  1.42303065E-02  6.96962317E-02  2.38487108E-01  4.83307220E-01
  3.38074154E-01 -2.37677050E-03 -3.16930067E-02 -1.13317024E-01  5.60900118E-02
  5.92255124E-01  4.55006095E-01 -2.50373114E-01  6.69567631E-02  1.05450627E+00
  1.00000000E+00  1.00000000E+00  1.83473713E-03  1.40373228E-02  6.88426223E-02
  2.32184443E-01  4.67941348E-01  3.62311985E-01 -1.19332420E-01 -1.60854152E-01
  1.14345644E+00  1.00000000E+00  1.00000000E+00  1.83477216E-03  1.39946270E-02
  6.85865518E-02  2.32240873E-01  4.69069948E-01  3.60455199E-01 -1.14961182E-01
 -1.69117479E-01  1.14585195E+00  1.00000000E+00  1.00000000E+00  1.83473713E-03
  1.40373228E-02  6.88426223E-02  2.32184443E-01  4.67941348E-01  3.62311985E-01
 -1.19332420E-01 -1.60854152E-01  1.14345644E+00  1.00000000E+00  1.00000000E+00
  1.83107443E-03  1.39501722E-02  6.84450781E-02  2.32714336E-01  4.70192898E-01
  3.58520853E-01 -1.10777550E-01 -1.48026263E-01  1.13076702E+00  1.00000000E+00
  1.00000000E+00  1.83473713E-03  1.40373228E-02  6.88426223E-02  2.32184443E-01
  4.67941348E-01  3.62311985E-01 -1.19332420E-01 -1.60854152E-01  1.14345644E+00
  1.00000000E+00  1.00000000E+00  1.83473713E-03  1.40373228E-02  6.88426223E-02
  2.32184443E-01  4.67941348E-01  3.62311985E-01 -1.19332420E-01 -1.60854152E-01
  1.14345644E+00  1.00000000E+00  1.00000000E+00  1.83477216E-03  1.39946270E-02
  6.85865518E-02  2.32240873E-01  4.69069948E-01  3.60455199E-01 -1.14961182E-01
 -1.69117479E-01  1.14585195E+00  1.00000000E+00  1.00000000E+00  1.83473713E-03
  1.40373228E-02  6.88426223E-02  2.32184443E-01  4.67941348E-01  3.62311985E-01
 -1.19332420E-01 -1.60854152E-01  1.14345644E+00  1.00000000E+00  1.00000000E+00
  3.34946043E-02  2.34726953E-01  8.13757326E-01  1.00000000E+00  3.34946043E-02
  2.34726953E-01  8.13757326E-01  1.00000000E+00  3.34946043E-02  2.34726953E-01
  8.13757326E-01  1.00000000E+00  3.34946043E-02  2.34726953E-01  8.13757326E-01
  1.00000000E+00  3.34946043E-02  2.34726953E-01  8.13757326E-01  1.00000000E+00
  3.34946043E-02  2.34726953E-01  8.13757326E-01  1.00000000E+00  3.34946043E-02
  2.34726953E-01  8.13757326E-01  1.00000000E+00  3.34946043E-02  2.34726953E-01
  8.13757326E-01  1.00000000E+00
P(S=P) Contraction coefficients            R   N=         137
  0.00000000E+00  0.00000000E+00  0.00000000E+00  0.00000000E+00  0.00000000E+00
  0.00000000E+00  4.06100998E-03  3.06812999E-02  1.30451999E-01  3.27204999E-01
  4.52850998E-01  2.56041999E-01 -1.45104895E-02  3.10262776E-01  7.54482456E-01
  1.00000000E+00  0.00000000E+00  0.00000000E+00  0.00000000E+00  0.00000000E+00
  0.00000000E+00  0.00000000E+00  0.00000000E+00  6.89990666E-02  3.16423961E-01
  7.44308291E-01  1.00000000E+00  0.00000000E+00  0.00000000E+00  0.00000000E+00
  0.00000000E+00  0.00000000E+00  0.00000000E+00  0.00000000E+00  6.75797439E-02
  3.23907296E-01  7.40895140E-01  1.00000000E+00  0.00000000E+00  0.00000000E+00
  0.00000000E+00  0.00000000E+00  0.00000000E+00  0.00000000E+00  0.00000000E+00
  6.89990666E-02  3.16423961E-01  7.44308291E-01  1.00000000E+00  0.00000000E+00
  0.00000000E+00  0.00000000E+00  0.00000000E+00  0.00000000E+00  0.00000000E+00
  0.00000000E+00  7.08742682E-02  3.39752839E-01  7.27158577E-01  1.00000000E+00
  0.00000000E+00  0.00000000E+00  0.00000000E+00  0.00000000E+00  0.00000000E+00
  0.00000000E+00  0.00000000E+00  6.89990666E-02  3.16423961E-01  7.44308291E-01
  1.00000000E+00  0.00000000E+00  0.00000000E+00  0.00000000E+00  0.00000000E+00
  0.00000000E+00  0.00000000E+00  0.00000000E+00  6.89990666E-02  3.16423961E-01
  7.44308291E-01  1.00000000E+00  0.00000000E+00  0.00000000E+00  0.00000000E+00
  0.00000000E+00  0.00000000E+00  0.00000000E+00  0.00000000E+00  6.75797439E-02
  3.23907296E-01  7.40895140E-01  1.00000000E+00  0.00000000E+00  0.00000000E+00
  0.00000000E+00  0.00000000E+00  0.00000000E+00  0.00000000E+00  0.00000000E+00
  6.89990666E-02  3.16423961E-01  7.44308291E-01  1.00000000E+00  0.00000000E+00
  0.00000000E+00  0.00000000E+00  0.00000000E+00  0.00000000E+00  0.00000000E+00
  0.00000000E+00  0.00000000E+00  0.00000000E+00  0.00000000E+00  0.00000000E+00
  0.00000000E+00  0.00000000E+00  0.00000000E+00  0.00000000E+00  0.00000000E+00
  0.00000000E+00  0.00000000E+00  0.00000000E+00  0.00000000E+00  0.00000000E+00
  0.00000000E+00  0.00000000E+00  0.00000000E+00  0.00000000E+00  0.00000000E+00
  0.00000000E+00  0.00000000E+00  0.00000000E+00  0.00000000E+00  0.00000000E+00
  0.00000000E+00  0.00000000E+00
Coordinates of each shell                  R   N=         159
 -4.04922745E+00 -2.83491217E+00  1.82696733E-02 -4.04922745E+00 -2.83491217E+00
  1.82696733E-02 -4.04922745E+00 -2.83491217E+00  1.82696733E-02 -4.04922745E+00
 -2.83491217E+00  1.82696733E-02 -4.04922745E+00 -2.83491217E+00  1.82696733E-02
 -1.68504840E+00 -7.97370948E-01 -7.38544753E-02 -1.68504840E+00 -7.97370948E-01
 -7.38544753E-02 -1.68504840E+00 -7.97370948E-01 -7.38544753E-02 -1.68504840E+00
 -7.97370948E-01 -7.38544753E-02  8.70050496E-01 -1.47181342E+00 -3.29610009E-01
  8.70050496E-01 -1.47181342E+00 -3.29610009E-01  8.70050496E-01 -1.47181342E+00
 -3.29610009E-01  8.70050496E-01 -1.47181342E+00 -3.29610009E-01  2.31034240E+00
  6.73819850E-01 -3.39228715E-01  2.31034240E+00  6.73819850E-01 -3.39228715E-01
  2.31034240E+00  6.73819850E-01 -3.39228715E-01  2.31034240E+00  6.73819850E-01
 -3.39228715E-01  4.86413718E+00  6.94966662E-01 -6.07645414E-01  4.86413718E+00
  6.94966662E-01 -6.07645414E-01  4.86413718E+00  6.94966662E-01 -6.07645414E-01
  4.86413718E+00  6.94966662E-01 -6.07645414E-01  6.11723407E+00 -1.29109732E+00
  7.02596195E-01  6.11723407E+00 -1.29109732E+00  7.02596195E-01  6.11723407E+00
 -1.29109732E+00  7.02596195E-01  6.11723407E+00 -1.29109732E+00  7.02596195E-01
  7.93609808E-01  2.69121541E+00 -1.25538485E-01  7.93609808E-01  2.69121541E+00
 -1.25538485E-01  7.93609808E-01  2.69121541E+00 -1.25538485E-01  7.93609808E-01
  2.69121541E+00 -1.25538485E-01 -1.68108079E+00  1.86799327E+00  6.11664563E-02
 -1.68108079E+00  1.86799327E+00  6.11664563E-02 -1.68108079E+00  1.86799327E+00
  6.11664563E-02 -1.68108079E+00  1.86799327E+00  6.11664563E-02 -3.81348606E+00
  3.55712431E+00  3.10855969E-01 -3.81348606E+00  3.55712431E+00  3.10855969E-01
 -3.81348606E+00  3.55712431E+00  3.10855969E-01 -3.81348606E+00  3.55712431E+00
  3.10855969E-01  1.48882296E+00 -3.26021225E+00 -5.30166643E-01  1.48882296E+00
 -3.26021225E+00 -5.30166643E-01  5.78740183E+00 -3.10948638E+00 -2.27111264E-01
  5.78740183E+00 -3.10948638E+00 -2.27111264E-01  8.14836829E+00 -9.08956285E-01
  6.48285466E-01  8.14836829E+00 -9.08956285E-01  6.48285466E-01  5.53011509E+00
 -1.37074945E+00  2.68643068E+00  5.53011509E+00 -1.37074945E+00  2.68643068E+00
  1.30120854E+00  4.66484553E+00 -9.74571546E-02  1.30120854E+00  4.66484553E+00
 -9.74571546E-02 -3.55568997E+00  4.71779418E+00  2.00219865E+00 -3.55568997E+00
  4.71779418E+00  2.00219865E+00 -3.89858079E+00  4.77682912E+00 -1.35622262E+00
 -3.89858079E+00  4.77682912E+00 -1.35622262E+00 -5.58580318E+00  2.51339024E+00
  4.73013368E-01 -5.58580318E+00  2.51339024E+00  4.73013368E-01
Num ILSW                                   I              100
ILSW                                       I   N=         100
           0           1           0           0           2           0
           0           0           0           0         402          -1
           5           0           0           0           0           0
           0           0           1           0           0           0
           1           0           0           0           0           0
           0           0      100000           0          -1           0
           0           0           0           0           0           0
           0           0           0           1           0           0
           0 -2000000000           1           0           0           0
           0           0           4          52           0           0
           0           0           5           0           0           0
           0           0           0           0           0           1
           0           0           0           0           0           0
           0           0           0           0           0           0
           0           0           0           0           0           0
           0           0           0           0           0           0
           0           0           0           0
Num RLSW                                   I               52
RLSW                                       R   N=          52
  8.00000000E-01  7.20000000E-01  1.00000000E+00  8.10000000E-01  2.00000000E-01
  0.00000000E+00  0.00000000E+00  1.00000000E+00  0.00000000E+00  0.00000000E+00
  0.00000000E+00  0.00000000E+00  1.00000000E+00  0.00000000E+00  0.00000000E+00
  0.00000000E+00  0.00000000E+00  1.00000000E+00  0.00000000E+00  0.00000000E+00
  0.00000000E+00  0.00000000E+00  1.00000000E+00  0.00000000E+00  0.00000000E+00
  0.00000000E+00  0.00000000E+00  1.00000000E+00  0.00000000E+00  0.00000000E+00
  0.00000000E+00  0.00000000E+00  1.00000000E+00  0.00000000E+00  0.00000000E+00
  0.00000000E+00  0.00000000E+00  0.00000000E+00  1.00000000E+00  1.00000000E+00
  0.00000000E+00  1.00000000E+00  0.00000000E+00  0.00000000E+00  0.00000000E+00
  0.00000000E+00  0.00000000E+00  0.00000000E+00  0.00000000E+00  0.00000000E+00
  0.00000000E+00  0.00000000E+00
MxBond                                     I                4
NBond                                      I   N=          17
           1           3           3           3           2           4
           3           3           4           1           1           1
           1           1           1           1           1
IBond                                      I   N=          68
           2           0           0           0           1           3
           8           0           2           4          10           0
           3           5           7           0           4           6
           0           0           5          11          12          13
           4           8          14           0           2           7
           9           0           8          15          16          17
           3           0           0           0           6           0
           0           0           6           0           0           0
           6           0           0           0           7           0
           0           0           9           0           0           0
           9           0           0           0           9           0
           0           0
RBond                                      R   N=          68
  2.00000000E+00  0.00000000E+00  0.00000000E+00  0.00000000E+00  2.00000000E+00
  1.00000000E+00  1.00000000E+00  0.00000000E+00  1.00000000E+00  1.50000000E+00
  1.00000000E+00  0.00000000E+00  1.50000000E+00  1.50000000E+00  2.00000000E+00
  0.00000000E+00  1.50000000E+00  1.00000000E+00  0.00000000E+00  0.00000000E+00
  1.00000000E+00  1.00000000E+00  1.00000000E+00  1.00000000E+00  2.00000000E+00
  1.00000000E+00  1.00000000E+00  0.00000000E+00  1.00000000E+00  1.00000000E+00
  1.00000000E+00  0.00000000E+00  1.00000000E+00  1.00000000E+00  1.00000000E+00
  1.00000000E+00  1.00000000E+00  0.00000000E+00  0.00000000E+00  0.00000000E+00
  1.00000000E+00  0.00000000E+00  0.00000000E+00  0.00000000E+00  1.00000000E+00
  0.00000000E+00  0.00000000E+00  0.00000000E+00  1.00000000E+00  0.00000000E+00
  0.00000000E+00  0.00000000E+00  1.00000000E+00  0.00000000E+00  0.00000000E+00
  0.00000000E+00  1.00000000E+00  0.00000000E+00  0.00000000E+00  0.00000000E+00
  1.00000000E+00  0.00000000E+00  0.00000000E+00  0.00000000E+00  1.00000000E+00
  0.00000000E+00  0.00000000E+00  0.00000000E+00
Virial Ratio                               R      2.006214236531105E+00
SCF Energy                                 R     -7.782414246445456E+02
Total Energy                               R     -7.782414246445456E+02
RMS Density                                R      9.393376644315916E-09
Job Status                                 I                1
Nuclear derivative order                   I                0
External E-field                           R   N=          35
  0.00000000E+00  0.00000000E+00  0.00000000E+00  0.00000000E+00  0.00000000E+00
  0.00000000E+00  0.00000000E+00  0.00000000E+00  0.00000000E+00  0.00000000E+00
  0.00000000E+00  0.00000000E+00  0.00000000E+00  0.00000000E+00  0.00000000E+00
  0.00000000E+00  0.00000000E+00  0.00000000E+00  0.00000000E+00  0.00000000E+00
  0.00000000E+00  0.00000000E+00  0.00000000E+00  0.00000000E+00  0.00000000E+00
  0.00000000E+00  0.00000000E+00  0.00000000E+00  0.00000000E+00  0.00000000E+00
  0.00000000E+00  0.00000000E+00  0.00000000E+00  0.00000000E+00  0.00000000E+00
IOpCl                                      I                0
IROHF                                      I                0
Alpha Orbital Energies                     R   N=         155
 -8.88075579E+01 -1.91999767E+01 -1.43990806E+01 -1.43971492E+01 -1.02921121E+01
 -1.02839011E+01 -1.02606990E+01 -1.02323430E+01 -1.02181663E+01 -7.87038714E+00
 -5.83600453E+00 -5.82930606E+00 -5.82687049E+00 -1.09497890E+00 -1.02906188E+00
 -9.26050141E-01 -7.93395788E-01 -7.49205328E-01 -7.31561635E-01 -6.63369049E-01
 -6.31398733E-01 -5.99699959E-01 -5.54008680E-01 -5.07015409E-01 -4.99115121E-01
 -4.83123953E-01 -4.76436773E-01 -4.72240815E-01 -4.41251341E-01 -4.19640398E-01
 -4.10044544E-01 -3.76867737E-01 -3.59331621E-01 -3.33970481E-01 -3.04222875E-01
 -2.63118518E-01 -2.01710210E-01 -1.77388161E-01  8.44605705E-03  4.48196292E-02
  5.53703647E-02  8.32654693E-02  1.04540152E-01  1.20893785E-01  1.30479081E-01
  1.35927523E-01  1.43181751E-01  1.49089914E-01  1.60425327E-01  1.67284036E-01
  1.78684451E-01  1.94592922E-01  2.20575657E-01  2.56968457E-01  2.99601233E-01
  3.18436182E-01  3.79030468E-01  4.08327704E-01  4.12451568E-01  4.35134742E-01
  4.56552570E-01  4.91862879E-01  5.06041125E-01  5.07619210E-01  5.17802365E-01
  5.37077297E-01  5.43870676E-01  5.49853833E-01  5.78731921E-01  6.02293271E-01
  6.11947866E-01  6.47706861E-01  6.67582618E-01  7.05660628E-01  7.42198270E-01
  7.58859374E-01  7.77257954E-01  7.97459050E-01  8.14551479E-01  8.25590106E-01
  8.33423682E-01  8.43750917E-01  8.61393123E-01  8.62020033E-01  8.91027309E-01
  8.95961321E-01  9.06864948E-01  9.08627697E-01  9.25016741E-01  9.48567411E-01
  9.57234395E-01  9.82109802E-01  1.03797576E+00  1.05187571E+00  1.06994745E+00
  1.09826031E+00  1.15224241E+00  1.16993762E+00  1.22564599E+00  1.26610953E+00
  1.29212531E+00  1.30964533E+00  1.33823219E+00  1.34850721E+00  1.38973947E+00
  1.41606123E+00  1.47974549E+00  1.49021630E+00  1.55001160E+00  1.55818694E+00
  1.57989201E+00  1.73404917E+00  1.78132262E+00  1.80100618E+00  1.85879405E+00
  1.87910220E+00  1.93365230E+00  1.94847513E+00  1.98332552E+00  2.01802196E+00
  2.03987711E+00  2.05094289E+00  2.08913384E+00  2.10755657E+00  2.12303643E+00
  2.17716907E+00  2.19945340E+00  2.20005282E+00  2.25034493E+00  2.26472387E+00
  2.29122599E+00  2.34562847E+00  2.36372994E+00  2.40729473E+00  2.43688387E+00
  2.51433006E+00  2.57840798E+00  2.59912641E+00  2.67323847E+00  2.70443932E+00
  2.73973119E+00  2.84836471E+00  2.86102970E+00  2.99852722E+00  3.14697443E+00
  3.18530567E+00  3.93258422E+00  3.95546999E+00  4.02077130E+00  4.10830055E+00
  4.20273926E+00  4.24109784E+00  4.37403174E+00  4.40314859E+00  4.62727589E+00
Alpha MO coefficients                      R   N=       24025
  9.96110468E-01  1.48596429E-02  6.39437553E-05  6.00394026E-05 -2.03008785E-06
 -2.42170919E-02 -1.41769395E-04 -1.39821614E-04  4.43654274E-06  2.54927323E-03
 -4.77526990E-05  8.57617540E-06  3.32076435E-06  8.49165051E-03  8.49975237E-03
  8.49317164E-03 -3.51790489E-06 -3.95861218E-07  4.59694683E-07  3.43057142E-05
  2.34293343E-04  1.36325289E-05 -4.59145449E-06 -1.80857521E-06 -6.80005931E-04
 -7.78617065E-04 -7.41908747E-04  3.13414888E-05 -8.49153666E-05 -5.93240914E-05
  4.00033721E-05 -1.39911701E-04  5.44041396E-06  6.32174987E-06 -1.75453145E-05
 -6.23935970E-05 -3.97259175E-06 -9.76867128E-06  1.38997653E-06  6.98465258E-04
 -4.61519409E-06  3.91597387E-04  1.84818113E-05 -5.33516221E-05 -1.43500652E-05
 -5.00013608E-05 -3.12066604E-05 -1.41381883E-06  5.00065498E-06 -1.16340981E-05
 -3.22482882E-05  2.44428301E-05  2.24940919E-05  2.45697861E-06 -1.24114595E-04
 -9.92064933E-05  1.72731498E-04  8.98071602E-06 -3.53802147E-05 -1.72810042E-05
 -2.25977469E-05 -7.84072916E-06  1.51291907E-06  1.61766636E-06 -2.04774402E-06
 -1.22247206E-05 -2.18289863E-06  1.26351335E-06  2.23006478E-06  8.30282751E-05
 -4.75520987E-05 -1.28410709E-05 -8.66557247E-06  9.33072453E-06 -1.06195856E-05
 -6.00702561E-06  3.22519764E-06 -1.45084739E-06  1.51387979E-06 -1.14308441E-06
 -6.82496782E-06  7.35303685E-06 -7.80186873E-07 -1.95085124E-07  7.70191166E-06
 -5.33525031E-05  1.94048679E-05  2.80145104E-06 -2.03607619E-07  2.65809191E-07
 -1.06519495E-06 -2.57996810E-06  1.47137880E-06 -3.55699162E-07 -1.10846379E-05
 -3.22668616E-05  3.13908048E-05  2.29257795E-05 -2.51145030E-06 -1.65540937E-04
 -1.44363388E-05  2.70697815E-05  6.85435470E-06 -1.38110543E-05 -2.52157110E-05
 -2.57368756E-05 -1.32159787E-05 -1.80946942E-06  6.45676753E-07 -1.34905719E-05
 -5.34784599E-05 -1.99841579E-05  7.32730107E-06  2.62688824E-06  6.93557552E-04
  3.21353167E-04 -2.83686158E-04 -4.65402139E-05 -1.87066514E-05 -1.53333812E-05
 -3.50131288E-05 -5.45189112E-05 -4.48270898E-06  5.37081583E-06  4.47371279E-06
  2.05158564E-05  1.36077447E-05 -2.13504485E-05 -3.22208669E-06  1.69902415E-04