$hessian                                                                        
        0.1897898092   0.0520632311  -0.2198791782  -0.1710668626  -0.0406095422
        0.1800800460   0.0164652270   0.0002860883  -0.0053561190  -0.0000910930
        0.0015128959  -0.0065392146   0.0002089369  -0.0000615102  -0.0004848928
       -0.0086656390  -0.0031790998  -0.0016565481  -0.0011508735   0.0004632249
        0.0025633008   0.0000130780  -0.0000293460   0.0002909859   0.0003726700
        0.0000625073  -0.0000751260  -0.0001190105   0.0000006786   0.0000966646
        0.0000945921   0.0000522390   0.0000145672  -0.0000338418  -0.0000051419
        0.0000883707   0.0000157212  -0.0000219764   0.0001086493  -0.0000617778
       -0.0001594698  -0.0000142388   0.0005752460  -0.0016977746  -0.0004952997
        0.0001343805   0.0007244821   0.0000231544  -0.0001386602   0.0002642023
        0.0003609518   0.0002483417   0.0015661609   0.0001907501  -0.0314506736
       -0.0107883989   0.0467095073   0.0028001567  -0.0004428957   0.0014425872
        0.0002919444   0.0004425277  -0.0005655248   0.0002258139   0.0000010443
       -0.0001102726   0.0001137773   0.0002596648  -0.0001491928  -0.0008310998
       -0.0001501353   0.0003828950   0.0002568964   0.0002224316  -0.0000635280
       -0.0000877441   0.0000382143   0.0000452650  -0.0000571760  -0.0000188082
        0.0001884043   0.0000172727   0.0000401463   0.0001115653   0.0000513236
        0.0000571579  -0.0000126259  -0.0000558722  -0.0000381343   0.0000733285
       -0.0000851889  -0.0000286916   0.0001121877  -0.0000239351  -0.0000131876
        0.0001201563  -0.0000191231  -0.0000378468   0.0001470606   0.0000437376
       -0.0000326218   0.0000891426   0.0000401161  -0.0001430644   0.0001010610
       -0.0000856253   0.0000384178   0.0000974667  -0.0009902574   0.0000661102
        0.0008755287   0.0032554129  -0.0007037798   0.0010881641
        0.0520632311   0.0577722703  -0.1255898070  -0.0427175565  -0.0850194536
        0.0938062704  -0.0016169071   0.0154212064   0.0234496966   0.0023714179
        0.0025880847   0.0001073016  -0.0003141523   0.0002731212  -0.0003348122
       -0.0022391096  -0.0008872681  -0.0009632839  -0.0001912060   0.0000543420
        0.0010029748  -0.0000029975   0.0000055518  -0.0000421035   0.0000564698
        0.0000575456  -0.0000563219  -0.0000270017   0.0000698402   0.0000688396
       -0.0000450059   0.0000363897   0.0001933305   0.0000015443  -0.0000381894
       -0.0000104456  -0.0000007258   0.0001584589  -0.0000171886  -0.0000154630
       -0.0000955886  -0.0000858271   0.0001976966  -0.0007026416   0.0001893482
        0.0003347416   0.0004661580  -0.0005816278  -0.0000491594   0.0002159252
       -0.0002712918   0.0001357298   0.0015717308  -0.0002402446  -0.0082844736
        0.0109440811   0.0108054949  -0.0003501451  -0.0013837997  -0.0006957515
       -0.0002393527  -0.0031410406  -0.0000507768   0.0000930151   0.0001332272
       -0.0001108937  -0.0000460044   0.0002351655   0.0001850692  -0.0002492593
       -0.0000362834   0.0000160142   0.0000290371   0.0001399519   0.0001323795
       -0.0000215087   0.0000638188  -0.0001108645   0.0000280916   0.0000544516
       -0.0000485389  -0.0000262023  -0.0000758540   0.0001580574  -0.0000381092
        0.0000983374   0.0001284829  -0.0000623871   0.0000415075   0.0002015667
       -0.0000406236   0.0000127460   0.0000832059   0.0000267667  -0.0000439233
       -0.0000712987  -0.0000434777   0.0002146830   0.0000703850   0.0000259565
        0.0001603343  -0.0000925936  -0.0000600036  -0.0000665026  -0.0001940816
        0.0000676964  -0.0000042854  -0.0002315805   0.0021621292   0.0009312016
       -0.0006423989  -0.0009126916  -0.0002253008  -0.0001566848
       -0.2198791782  -0.1255898070   0.5880261897   0.1872435406   0.0936510347
       -0.4845809805   0.0086203908   0.0237115712  -0.0876927598  -0.0142563336
       -0.0003448540   0.0016443393   0.0017263869   0.0008577276   0.0003568008
        0.0029270017   0.0025997938   0.0006808940   0.0005511306  -0.0002964680
       -0.0015899851   0.0001534937  -0.0000697818   0.0003415010  -0.0003013110
       -0.0000777828   0.0000511928   0.0000975569  -0.0000389536   0.0000239855
       -0.0000790103  -0.0000615744   0.0000209694  -0.0000095819  -0.0000013061
        0.0000855466   0.0000373751  -0.0000040010   0.0000967727   0.0002699641
        0.0001971786  -0.0003174077  -0.0010963425   0.0024573432  -0.0005384346
       -0.0001113376  -0.0010347525   0.0002552654   0.0004653413  -0.0003398526
        0.0000940475   0.0004066288  -0.0021437654   0.0006374025   0.0295427638
        0.0085189782  -0.0150684823   0.0017584894  -0.0003379426   0.0014318222
        0.0010092970   0.0003514946  -0.0037690229   0.0000700624  -0.0001970691
        0.0005849764   0.0004049932  -0.0003326659   0.0000839231   0.0002737788
        0.0001373930   0.0000208758  -0.0001943437  -0.0001597979  -0.0000106506
        0.0001359208  -0.0001278408   0.0001042565   0.0000175758   0.0000536926
       -0.0000539154  -0.0000581775   0.0000070064   0.0000370294  -0.0000250448
       -0.0000869654   0.0000937988   0.0000533469   0.0000179870   0.0000602657
        0.0000502117  -0.0000071032   0.0001457884  -0.0000360335  -0.0000468184
        0.0000702598   0.0000667853   0.0000162812   0.0001044205  -0.0000025377
        0.0000286542   0.0000908404   0.0000168299  -0.0000290172  -0.0000108717
        0.0000170163  -0.0000426507   0.0000057458   0.0003311290  -0.0001165083
       -0.0012303584  -0.0001977786  -0.0011188575  -0.0002860411
       -0.1710668626  -0.0427175565   0.1872435406   0.5244671218   0.0373913248
       -0.1128073369  -0.1340840106   0.0116720221  -0.0542689073   0.0192714674
        0.0019028792  -0.0052846832  -0.0033885701  -0.0011998854   0.0006362498
       -0.0089748273   0.0018817526   0.0200461737   0.0010810211   0.0001301071
       -0.0005072891   0.0001763922   0.0000057345  -0.0010582607  -0.0008585810
       -0.0000626320   0.0003196893   0.0002780061  -0.0000452511  -0.0000239853
       -0.0001656787  -0.0001062539  -0.0000560399   0.0000207706   0.0000036225
       -0.0001054909  -0.0000026855   0.0000300098  -0.0001323585   0.0002421235
        0.0002334057   0.0000591085  -0.0015321047   0.0032780077   0.0024584688
       -0.0002165108  -0.0013607441  -0.0002664150   0.0003575470  -0.0004276249
       -0.0014926318   0.0001285938  -0.0037275406  -0.0035833309  -0.1671138951
       -0.0044008738  -0.0040644055  -0.0214961958   0.0045247468  -0.0210094032
       -0.0007145339  -0.0012895717   0.0032563938  -0.0007997211   0.0004944395
       -0.0008476550  -0.0011591234  -0.0004260796   0.0001241489   0.0006243036
       -0.0000241815  -0.0007067756  -0.0002367165  -0.0001987346   0.0002850354
        0.0001345355  -0.0000947467  -0.0000161739   0.0001388988  -0.0000413414
       -0.0004229415  -0.0000712767  -0.0000750480  -0.0001665180  -0.0000729237
       -0.0000243640   0.0000253858   0.0001055879   0.0000793010  -0.0000994748
        0.0001333410   0.0000320672  -0.0001120623   0.0000069821   0.0000159823
       -0.0001429407   0.0000818610   0.0000402251  -0.0001812359  -0.0000537431
        0.0000133203  -0.0000896728  -0.0002345054   0.0003251348  -0.0002175187
        0.0001933962  -0.0000789962  -0.0001498897  -0.0128904969  -0.0065617310
       -0.0014804727  -0.0223089868   0.0008090740  -0.0051603248
       -0.0406095422  -0.0850194536   0.0936510347   0.0373913248   0.2190117882
       -0.1141285500   0.0139934563  -0.0706488552   0.0051263345   0.0001573321
       -0.0039122611   0.0124015280   0.0005976353  -0.0048685227  -0.0009219206
        0.0055096461   0.0023576921   0.0004030708   0.0000938888   0.0002184687
       -0.0009448699  -0.0001323769  -0.0001985173   0.0001873549  -0.0000720802
       -0.0000631776   0.0000494892   0.0000635392   0.0000202067  -0.0001427985
       -0.0000265123  -0.0001823563  -0.0000617357   0.0000484086  -0.0001015083
       -0.0000524104   0.0000483928  -0.0002059904  -0.0000482384   0.0000486388
        0.0002174083   0.0000063499   0.0002315991   0.0014746747  -0.0008210381
       -0.0003903696  -0.0006290408   0.0005421243  -0.0001014386  -0.0004257785
        0.0005625775  -0.0002642596  -0.0026736486   0.0006412418  -0.0071126422
       -0.0641900514  -0.0000221288  -0.0008194122   0.0022756969  -0.0009463109
       -0.0000789263   0.0131910514   0.0039626343   0.0005154105  -0.0001566355
       -0.0001932254  -0.0009462159  -0.0005564089   0.0002110029   0.0002762676
        0.0000936198   0.0000102463  -0.0000879349  -0.0000463551  -0.0000918399
        0.0000197396  -0.0000316254   0.0001266541   0.0000051932  -0.0001860152
        0.0000190346   0.0000284403   0.0000532115  -0.0001385740   0.0000598499
       -0.0001463010  -0.0001474677   0.0000953782  -0.0001662144  -0.0002183534
        0.0000481576  -0.0000647332  -0.0000656593  -0.0000014785  -0.0000330493
        0.0000305052   0.0000547335  -0.0003053366  -0.0000614088   0.0000079276
       -0.0002569165   0.0000445167  -0.0000024459   0.0001915532   0.0002959388
       -0.0000999474  -0.0000670660   0.0002204784  -0.0279743671  -0.0057760045
        0.0006842330   0.0194249900   0.0018064520  -0.0001698201
        0.1800800460   0.0938062704  -0.4845809805  -0.1128073369  -0.1141285500
        0.6985697736  -0.0679531717   0.0056319571  -0.0972206190   0.0063895974
        0.0137147418  -0.0518733178  -0.0051758156  -0.0031087084   0.0027532291
        0.0266833883   0.0001851158  -0.0035459489   0.0016979351  -0.0006285085
       -0.0039601120  -0.0008336368   0.0002456463  -0.0004703074   0.0003804091
        0.0000876685  -0.0000754841  -0.0000970391   0.0000437727   0.0001167683
        0.0000815639   0.0000441672  -0.0001773287  -0.0000156496  -0.0000075053
       -0.0001767107  -0.0000148252   0.0000063245  -0.0001798229  -0.0004308234
       -0.0002064352   0.0003624564   0.0017969592  -0.0030285003   0.0011476537
        0.0000397688   0.0013879465  -0.0004518051  -0.0008251835   0.0004827080
       -0.0001855035  -0.0015238910   0.0022373559  -0.0014186921  -0.0020787867
       -0.0002259662  -0.0638893004   0.0012149058  -0.0013946380   0.0041713219
        0.0007203107   0.0036126581  -0.0004254141  -0.0004272337   0.0003692550
       -0.0003768048  -0.0013990409   0.0002168481  -0.0002590245   0.0012824569
        0.0002642950  -0.0005715589   0.0000174330   0.0000228470   0.0000487803
       -0.0001498509   0.0001351879  -0.0000923927  -0.0001320311  -0.0000320911
        0.0000195240   0.0000759437  -0.0000352014  -0.0000738729  -0.0000003156
        0.0000718615  -0.0001044386  -0.0000704375  -0.0000110441  -0.0001368610
       -0.0000310415  -0.0000011565  -0.0002197616   0.0000442596   0.0000413286
       -0.0001668411  -0.0000722562   0.0000080693  -0.0001796030  -0.0000200592
       -0.0000089606  -0.0001689056  -0.0000442359  -0.0000151783   0.0000004237
       -0.0001316403   0.0000550623  -0.0000565728  -0.0054703926  -0.0005167646
        0.0023377865  -0.0208002825   0.0006781213   0.0015102671
        0.0164652270  -0.0016169071   0.0086203908  -0.1340840106   0.0139934563
       -0.0679531717   0.6051811972   0.0423505667  -0.1302450290  -0.1508177047
       -0.0405893081   0.1553830282  -0.0187722660  -0.0070609619   0.0282141586
        0.0026786228  -0.0002825325  -0.0013165432   0.0000335605  -0.0002054523
        0.0000075445   0.0001682029   0.0000761051   0.0001141360   0.0001151409
       -0.0000100835   0.0000170504  -0.0000072388  -0.0000151908  -0.0000010873
        0.0000060421  -0.0000021331   0.0000034922  -0.0000032463  -0.0000057813
        0.0000133411   0.0000008288  -0.0000106844   0.0000210734   0.0000515935
       -0.0000761474  -0.0000374533  -0.0004168881  -0.0000102211   0.0000494838
        0.0001230283  -0.0000624123   0.0000429715   0.0001774916   0.0000072211
       -0.0000478812   0.0002950648   0.0000455789   0.0000832580  -0.0240200288
        0.0033966219  -0.0180311293  -0.2902447776  -0.0126271716   0.0391451530
        0.0065929020   0.0041793300  -0.0165164347  -0.0046509634  -0.0002971684
        0.0014975310  -0.0020264383  -0.0002767925   0.0010315181   0.0001345321
       -0.0000067259  -0.0000142003   0.0000403672   0.0001381823   0.0000135517
        0.0000243412  -0.0000155533   0.0000042132  -0.0000136485  -0.0000109170
        0.0000409484   0.0000092648   0.0000215427   0.0000311893   0.0000141870
        0.0000130979   0.0000001721  -0.0000026235  -0.0000105179   0.0000125199
       -0.0000089453  -0.0000142587   0.0000221389   0.0000004125  -0.0000159781
        0.0000227777  -0.0000029150  -0.0000162979   0.0000245991   0.0000082955
       -0.0000135025   0.0000161413   0.0000146278  -0.0000822842   0.0000173679
        0.0000116622   0.0000023313   0.0000481574  -0.0020454197  -0.0001369810
       -0.0002831771  -0.0050294780  -0.0007520694  -0.0000518005
        0.0002860883   0.0154212064   0.0237115712   0.0116720221  -0.0706488552
        0.0056319571   0.0423505667   0.1358188777  -0.1427512974  -0.0350868333
       -0.0617144857   0.0972113662  -0.0045965221  -0.0003409209   0.0040362894
       -0.0005131559  -0.0007807565   0.0006933862  -0.0001245323  -0.0000255535
        0.0002101562  -0.0000246798   0.0000951210  -0.0000889595  -0.0000061518
        0.0000367989   0.0000152885   0.0000013694   0.0000940827   0.0000256619
       -0.0000711367   0.0000062293   0.0000342415   0.0000004632   0.0000500405
       -0.0000012213   0.0000086688   0.0000846727   0.0000000280   0.0001073933
       -0.0000606695  -0.0000205684  -0.0002673268   0.0002210150   0.0002730932
        0.0001932362   0.0000428749  -0.0001153480   0.0001223249   0.0000290074
       -0.0003013575   0.0003568298  -0.0001060725  -0.0003875893  -0.0003346192
        0.0118130854  -0.0004212182  -0.0129669208  -0.0352532143   0.0046294517
       -0.0017981331   0.0036149263   0.0083675061   0.0002460682   0.0002192784
       -0.0009061651  -0.0006965287   0.0003957649  -0.0005455271   0.0000135453
       -0.0000024509  -0.0000536596   0.0000230482   0.0000545621   0.0000587067
        0.0000141707   0.0000694155  -0.0000240386   0.0000228351   0.0000340348
       -0.0000182666  -0.0000441941   0.0000127543   0.0000207467  -0.0000443804
        0.0000485470   0.0000242826  -0.0000533523   0.0000509757   0.0000387477
       -0.0000347283   0.0000878012   0.0000141102   0.0000194589   0.0000521372
       -0.0000142611  -0.0000272964   0.0001255026   0.0000107475   0.0000259998
        0.0000907212  -0.0000141509   0.0000143801  -0.0000046618  -0.0000456562
        0.0000825808   0.0000357674  -0.0000142874   0.0024573750  -0.0000850317
        0.0007401442  -0.0013279326   0.0004174723  -0.0000239109
       -0.0053561190   0.0234496966  -0.0876927598  -0.0542689073   0.0051263345
       -0.0972206190  -0.1302450290  -0.1427512974   0.6714791558   0.1303191637
        0.0952991102  -0.4038242692   0.0201232329   0.0054229008  -0.0081907940
       -0.0021619672   0.0007494947  -0.0048100703  -0.0001111459   0.0000475773
        0.0002423744   0.0001067376  -0.0000447896   0.0005196626   0.0000574981
       -0.0000251325  -0.0000521379  -0.0000229219  -0.0000015286   0.0000707595
        0.0000070092  -0.0000074644  -0.0000223756  -0.0000158000   0.0000032380
        0.0000864504   0.0000379379  -0.0000165709   0.0001003925   0.0000906299
        0.0000460063  -0.0001883225  -0.0002399126   0.0005545807  -0.0005925321
       -0.0000251990  -0.0003197768   0.0001959777   0.0001653694  -0.0001108587
        0.0003850526   0.0003172789  -0.0007171839   0.0010047124  -0.0079402934
        0.0013196371   0.0020477400   0.0401884718   0.0053967949  -0.0492269985
        0.0075687425   0.0082093876  -0.0277536493   0.0008750148  -0.0005405528
        0.0016073859  -0.0000526579  -0.0012821835   0.0002190550  -0.0003422571
        0.0000750361   0.0003029485   0.0000182165  -0.0000327782  -0.0001192279
        0.0000460544  -0.0000520719   0.0000834846  -0.0000278461   0.0000573520
        0.0000753092  -0.0000197641   0.0000202172   0.0000740774   0.0000066997
       -0.0000406576   0.0000455328   0.0000012389  -0.0000054662   0.0000552703
       -0.0000061419  -0.0000131776   0.0001253283  -0.0000300753  -0.0000297122
        0.0000908529   0.0000267846   0.0000012163   0.0001196183   0.0000170680
        0.0000146871   0.0000905311   0.0000129844  -0.0000840255   0.0000572194
       -0.0000163102   0.0000034438   0.0000290993   0.0000131148   0.0001983559
        0.0000367620   0.0008830998   0.0000801610   0.0005490030
       -0.0000910930   0.0023714179  -0.0142563336   0.0192714674   0.0001573321
        0.0063895974  -0.1508177047  -0.0350868333   0.1303191637   0.5427772512
        0.0185394980  -0.0688057322  -0.2008164261  -0.0017697279   0.0258567017
       -0.0252542053   0.0046698745  -0.0096541069  -0.0013846517   0.0019432754
       -0.0019162898  -0.0004825713  -0.0003831285   0.0006123978  -0.0003117395
        0.0000866154  -0.0001791449   0.0000408636  -0.0000041112  -0.0000610484
       -0.0000432695  -0.0000139516   0.0000121508   0.0000153739   0.0000085754
       -0.0000197944   0.0000152719  -0.0000015945  -0.0000109425   0.0001994966
        0.0000678661  -0.0001302884  -0.0007743660   0.0016824317  -0.0008677445
       -0.0000371621  -0.0009581986   0.0002649559   0.0004761405  -0.0003111815
        0.0002945015   0.0007028337  -0.0021113827   0.0021398908  -0.0025529939
       -0.0006872409   0.0018281015  -0.0141120968  -0.0067576662   0.0270311013
       -0.1372883509   0.0276661300  -0.1134672882  -0.0124053615  -0.0007820575
        0.0083674157  -0.0167937390  -0.0081935074   0.0060220221  -0.0002510987
        0.0001065084   0.0002083814  -0.0001023979  -0.0001121600  -0.0001073775
        0.0000592624  -0.0000533369  -0.0000075969   0.0000391713   0.0000417115
       -0.0000713598  -0.0000072186   0.0000304440  -0.0000249681  -0.0000519699
       -0.0000405224  -0.0000073858   0.0000218871   0.0000114681  -0.0000224429
        0.0000376154   0.0000152914  -0.0000107250   0.0000195704  -0.0000117641
       -0.0000167849   0.0000010386   0.0000228398  -0.0000387595  -0.0000124633
        0.0000266157  -0.0000240969   0.0000935259  -0.0001038378   0.0000209064
        0.0001007732  -0.0000638961   0.0000146634  -0.0003199987  -0.0001007663
       -0.0002331862   0.0000393355   0.0000989699   0.0005514458
        0.0015128959   0.0025880847  -0.0003448540   0.0019028792  -0.0039122611
        0.0137147418  -0.0405893081  -0.0617144857   0.0952991102   0.0185394980
        0.1723571279  -0.1511369279  -0.0048240519  -0.0588122280   0.0022909059
        0.0124770385   0.0013226485  -0.0030160600   0.0010405755  -0.0007868047
        0.0013232772   0.0004657919   0.0003551182   0.0000980900   0.0001316015
       -0.0000927426   0.0000923596   0.0000255283   0.0000440664  -0.0000176874
       -0.0000359882  -0.0000896812  -0.0000676764   0.0000184666  -0.0000158898
        0.0000031835   0.0000280813  -0.0000711792   0.0000145859  -0.0000677432
        0.0000235251  -0.0000404030   0.0001710105   0.0002919041   0.0000445769
       -0.0000359663  -0.0000915563   0.0001669937  -0.0001139921  -0.0000474487
        0.0002120856   0.0001707928  -0.0006041701   0.0002038508  -0.0013279875
       -0.0002397097  -0.0009291382  -0.0012880416  -0.0018703829   0.0015404827
        0.0294803765  -0.0464652839   0.0363162315   0.0110456913   0.0013881822
       -0.0027276724  -0.0283804018  -0.0035321472   0.0069390642  -0.0001438899
       -0.0001104400   0.0000940909   0.0000447076   0.0000573258   0.0000220057
        0.0000508500   0.0000069413   0.0000213939  -0.0000224588  -0.0000119011
        0.0000294261  -0.0000110178   0.0000231049  -0.0000355085   0.0000106512
       -0.0000341959  -0.0000417342   0.0000134014  -0.0000367220  -0.0000573874
        0.0000030580  -0.0000026818  -0.0000224357   0.0000091087  -0.0000045535
        0.0000204034   0.0000055298  -0.0000573647  -0.0000188197   0.0000137115
       -0.0000489284   0.0000332143  -0.0000096107   0.0000593445   0.0000452725
       -0.0000407519   0.0000386654   0.0000504243  -0.0003230890   0.0000696196
       -0.0000297618   0.0000530532   0.0000270998  -0.0000897041
       -0.0065392146   0.0001073016   0.0016443393  -0.0052846832   0.0124015280
       -0.0518733178   0.1553830282   0.0972113662  -0.4038242692  -0.0688057322
       -0.1511369279   0.7220209958   0.0203149391   0.0007222227  -0.0719526226
       -0.0174888464  -0.0017732859   0.0064711618  -0.0021177575   0.0018575904
       -0.0023031996  -0.0010963323  -0.0001410760  -0.0001955416  -0.0002671731
        0.0001244671  -0.0000986082  -0.0000034758   0.0000236986   0.0000559058
        0.0000001724   0.0000042482  -0.0001249410  -0.0000161464   0.0000296400
       -0.0000339022  -0.0000007324  -0.0000073190  -0.0000368138   0.0001230815
       -0.0001099375   0.0002023294  -0.0002976628  -0.0000675876   0.0010266942
        0.0000535060   0.0001049811  -0.0000959492   0.0000270657  -0.0000271106
       -0.0005835478   0.0005809956   0.0004748182  -0.0011646557   0.0034111590
       -0.0003144572   0.0010799296   0.0046122520   0.0004937025  -0.0069617588
       -0.1164569386   0.0360351798  -0.1823772287   0.0288402458   0.0013232388
       -0.0103281973   0.0044654740   0.0024628397   0.0000274540   0.0002200134
        0.0000120707  -0.0001765680   0.0000285064   0.0000648168  -0.0000117769
       -0.0001009457   0.0000238289   0.0000379228   0.0000168094  -0.0000197772
       -0.0000264120   0.0000061231   0.0000145343  -0.0000343833   0.0000131492
        0.0000182969  -0.0000306530  -0.0000104113   0.0000149687  -0.0000774855
       -0.0000020375   0.0000187327  -0.0000540094   0.0000007389   0.0000371324
       -0.0000210556   0.0000012520  -0.0000176583  -0.0000451947   0.0000001305
       -0.0000187015  -0.0000124807  -0.0000655007   0.0000596415   0.0000270692
        0.0000156566   0.0000052897   0.0000438901   0.0001871425   0.0000512943
       -0.0002579696   0.0002521491  -0.0000635913   0.0000648502
        0.0002089369  -0.0003141523   0.0017263869  -0.0033885701   0.0005976353
       -0.0051758156  -0.0187722660  -0.0045965221   0.0201232329  -0.2008164261
       -0.0048240519   0.0203149391   0.4472349938   0.0084359000  -0.0160584878
       -0.0898028027   0.0261479410  -0.0323222964  -0.0225758119   0.0109264894
       -0.0172816085  -0.0057342334  -0.0015065406  -0.0000861999  -0.0007598122
        0.0007666039  -0.0009503377  -0.0000063030   0.0000821282   0.0000158226
        0.0000265200   0.0000422806   0.0000091148  -0.0000039602   0.0000102726
        0.0000235873  -0.0000219894   0.0000273540  -0.0000039462   0.0001133710
       -0.0002253272   0.0003595462  -0.0003090819  -0.0005947160   0.0003192224
        0.0001954093   0.0003019202  -0.0001230525  -0.0001071666   0.0001797441
       -0.0000843166   0.0035621148   0.0037578790  -0.0011596967   0.0045355026
       -0.0025260083   0.0016527649   0.0014039171  -0.0003405037   0.0010097201
       -0.0191578262   0.0000644457   0.0010790799  -0.0446190536   0.0153820740
        0.0273774518  -0.0513292874  -0.0535881591  -0.0009684203   0.0006901928
        0.0005756947  -0.0014228119  -0.0000663394   0.0010769573  -0.0004577461
       -0.0005458847   0.0000371776   0.0000925698   0.0001013702  -0.0000238089
        0.0000042637   0.0000041922   0.0000238047   0.0000526512   0.0000307106
        0.0000756534  -0.0000042589  -0.0000571906  -0.0000074651   0.0000199295
       -0.0000459989   0.0000072393  -0.0000015563   0.0000229501   0.0000132500
        0.0000313722  -0.0000299980   0.0000020400   0.0000175119   0.0000352275
       -0.0000102596  -0.0000184955  -0.0001051681  -0.0000106222   0.0000288813
        0.0000063897  -0.0000309732  -0.0000427340   0.0000454543   0.0001701299
       -0.0001267018   0.0000379175  -0.0001055045   0.0020304341
       -0.0000615102   0.0002731212   0.0008577276  -0.0011998854  -0.0048685227
       -0.0031087084  -0.0070609619  -0.0003409209   0.0054229008  -0.0017697279
       -0.0588122280   0.0007222227   0.0084359000   0.4846907797   0.0222037593
        0.0247169960  -0.0770797941   0.0299927444   0.0010566308   0.0015953339
       -0.0009580736  -0.0012179073   0.0001696090   0.0000266813  -0.0001032361
        0.0001726593  -0.0001738698   0.0000087070   0.0000305755   0.0000256169
        0.0000045368  -0.0000445251  -0.0000344275   0.0000111780  -0.0000411345
        0.0000221447   0.0000085846  -0.0000497242   0.0000221181   0.0002085971
       -0.0003399926  -0.0000469731  -0.0028422573  -0.0023416369   0.0033034457
        0.0011379890  -0.0024137688  -0.0001819180   0.0000081916   0.0001615016
       -0.0003771377   0.0191486611  -0.0366896983   0.0150303445  -0.0015024346
        0.0043192594   0.0001627010  -0.0005231776   0.0105546182   0.0035933305
        0.0063582099   0.0030656055  -0.0001070241   0.0160181142  -0.0773926175
       -0.0803432892  -0.0604619876  -0.2457240988   0.0056211436  -0.0001506098
        0.0001847020  -0.0000699365  -0.0008559656   0.0004144520  -0.0003555237
       -0.0001472389  -0.0000128543  -0.0000107765  -0.0000111789  -0.0000016427
        0.0000410366   0.0000241039  -0.0000063096   0.0000308994   0.0000021514
        0.0000369073   0.0000044129  -0.0000047110  -0.0000398598   0.0000223195
       -0.0000076897  -0.0000562233  -0.0000021406   0.0000176815  -0.0000545894
        0.0000120118  -0.0000089535  -0.0000213396   0.0000055953   0.0000159518
       -0.0000232762   0.0000034707   0.0000383387  -0.0000472915  -0.0000897961
        0.0000368041   0.0001217976   0.0000308065   0.0003364921   0.0002326793
       -0.0000040383   0.0003356139   0.0003784474  -0.0012938009
       -0.0004848928  -0.0003348122   0.0003568008   0.0006362498  -0.0009219206
        0.0027532291   0.0282141586   0.0040362894  -0.0081907940   0.0258567017
        0.0022909059  -0.0719526226  -0.0160584878   0.0222037593   0.4793935694
       -0.0379984682   0.0309222528  -0.1117863408  -0.0032066764   0.0001830267
       -0.0000069393   0.0007860554  -0.0001345520   0.0006486513  -0.0000772869
       -0.0000344633   0.0001034530   0.0000441448  -0.0000180340  -0.0000025067
       -0.0000257234  -0.0000290501  -0.0000904696  -0.0000031560   0.0000217573
       -0.0000329678   0.0000100432  -0.0000111958  -0.0000222624   0.0000475503
        0.0002085084  -0.0001128170   0.0001571684  -0.0002685817   0.0005689875
        0.0000416506  -0.0004366599   0.0000138691  -0.0000897963   0.0000524919
       -0.0002554800   0.0015417000   0.0035998982   0.0044246808  -0.0128631462
        0.0124782509  -0.0255371014   0.0016319923   0.0040087885  -0.0027394681
       -0.0186177812  -0.0016869189   0.0021004743   0.0288154330  -0.0803810269
       -0.2249564164  -0.0008644465   0.0048795925  -0.0398050428   0.0009441700
        0.0000238562   0.0006835509   0.0001510253   0.0001704948  -0.0000678634
        0.0001065522  -0.0000612980   0.0000118816  -0.0000155179   0.0000177510
       -0.0000626513  -0.0000021048   0.0000125960  -0.0000260301  -0.0000251027
       -0.0000284426  -0.0000077668   0.0000072164   0.0000128303  -0.0000551520
        0.0000260542   0.0000013637  -0.0000346266   0.0000038683  -0.0000039849
       -0.0000218298   0.0000086249  -0.0000063469  -0.0000442407  -0.0000138812
       -0.0000075324  -0.0000100976  -0.0000001941  -0.0000844150  -0.0000309042
       -0.0000396663  -0.0000359906  -0.0000070067   0.0000505798   0.0002265077
        0.0000271988   0.0013053895  -0.0008656958  -0.0052269487
       -0.0086656390  -0.0022391096   0.0029270017  -0.0089748273   0.0055096461
        0.0266833883   0.0026786228  -0.0005131559  -0.0021619672  -0.0252542053
        0.0124770385  -0.0174888464  -0.0898028027   0.0247169960  -0.0379984682
        0.4381212973  -0.0131013481  -0.0039612483  -0.1262231017  -0.0151268174
        0.0153035718  -0.0250856235   0.0015573467  -0.0031438554  -0.0016673149
        0.0019523071  -0.0025214445   0.0006008752   0.0002289610  -0.0001303449
       -0.0001309207  -0.0001130378   0.0000122138   0.0000136366  -0.0000196377
        0.0000249576  -0.0000015567  -0.0000090962  -0.0000073087   0.0008089044
       -0.0009863181   0.0003144776   0.0126493784   0.0203053570   0.0031735183
       -0.0041969022   0.0061311248  -0.0000096498  -0.0018040123  -0.0005444543
        0.0010479643  -0.0815823591  -0.0347019087  -0.0073336539  -0.0710874275
        0.0089469512   0.0291827491   0.0005130594  -0.0003973249  -0.0000521987
       -0.0047587699   0.0007001452   0.0011328615   0.0015530396  -0.0010538648
        0.0001474535   0.0032696512  -0.0023679947   0.0038928910  -0.0123786659
       -0.0038732110   0.0059176268  -0.0041765458  -0.0033585392   0.0006147293
       -0.0009069536  -0.0003551198   0.0002989690   0.0003877732   0.0000126410
       -0.0002744734  -0.0000796410   0.0000044556  -0.0000300929  -0.0000178819
       -0.0002037505   0.0001266820   0.0000673522   0.0000101075  -0.0000142855
        0.0000680898  -0.0000362094   0.0000142225  -0.0000053557  -0.0000648683
        0.0000085842   0.0000542123  -0.0000384319  -0.0000294571  -0.0000369700
       -0.0000511024  -0.0000146034  -0.0000778196  -0.0003909600  -0.0000187769
        0.0003619246  -0.0003110576   0.0001833042   0.0020495466  -0.0008915863
       -0.0050393097   0.0037179327  -0.0018041728  -0.0107771819
       -0.0031790998  -0.0008872681   0.0025997938   0.0018817526   0.0023576921
        0.0001851158  -0.0002825325  -0.0007807565   0.0007494947   0.0046698745
        0.0013226485  -0.0017732859   0.0261479410  -0.0770797941   0.0309222528
       -0.0131013481   0.4015284362  -0.0065151803  -0.0218991119  -0.0638953305