 Entering Gaussian System, Link 0=g16
 Input=spiro_mol-conf_04_freq.com
 Output=spiro_mol-conf_04_freq.log
 Initial command:
 /************/software/gaussian/16.C.02-avx2-gaussview-6.1.1/g16/l1.exe "/scratch/gaussian_tmp/Gau-772543.inp" -scrdir="/scratch/gaussian_tmp/"
 Entering Link 1 = /************/software/gaussian/16.C.02-avx2-gaussview-6.1.1/g16/l1.exe PID=    772545.
  
 Copyright (c) 1988-2021, Gaussian, Inc.  All Rights Reserved.
  
 This is part of the Gaussian(R) 16 program.  It is based on
 the Gaussian(R) 09 system (copyright 2009, Gaussian, Inc.),
 the Gaussian(R) 03 system (copyright 2003, Gaussian, Inc.),
 the Gaussian(R) 98 system (copyright 1998, Gaussian, Inc.),
 the Gaussian(R) 94 system (copyright 1995, Gaussian, Inc.),
 the Gaussian 92(TM) system (copyright 1992, Gaussian, Inc.),
 the Gaussian 90(TM) system (copyright 1990, Gaussian, Inc.),
 the Gaussian 88(TM) system (copyright 1988, Gaussian, Inc.),
 the Gaussian 86(TM) system (copyright 1986, Carnegie Mellon
 University), and the Gaussian 82(TM) system (copyright 1983,
 Carnegie Mellon University). Gaussian is a federally registered
 trademark of Gaussian, Inc.
  
 This software contains proprietary and confidential information,
 including trade secrets, belonging to Gaussian, Inc.
  
 This software is provided under written license and may be
 used, copied, transmitted, or stored only in accord with that
 written license.
  
 The following legend is applicable only to US Government
 contracts under FAR:
  
                    RESTRICTED RIGHTS LEGEND
  
 Use, reproduction and disclosure by the US Government is
 subject to restrictions as set forth in subparagraphs (a)
 and (c) of the Commercial Computer Software - Restricted
 Rights clause in FAR 52.227-19.
  
 Gaussian, Inc.
 340 Quinnipiac St., Bldg. 40, Wallingford CT 06492
  
  
 ---------------------------------------------------------------
 Warning -- This program may not be used in any manner that
 competes with the business of Gaussian, Inc. or will provide
 assistance to any competitor of Gaussian, Inc.  The licensee
 of this program is prohibited from giving any competitor of
 Gaussian, Inc. access to this program.  By using this program,
 the user acknowledges that Gaussian, Inc. is engaged in the
 business of creating and licensing software in the field of
 computational chemistry and represents and warrants to the
 licensee that it is not a competitor of Gaussian, Inc. and that
 it will not use this program in any manner prohibited above.
 ---------------------------------------------------------------
  

 Cite this work as:
 Gaussian 16, Revision C.02,
 M. J. Frisch, G. W. Trucks, H. B. Schlegel, G. E. Scuseria, 
 M. A. Robb, J. R. Cheeseman, G. Scalmani, V. Barone, 
 G. A. Petersson, H. Nakatsuji, X. Li, M. Caricato, A. V. Marenich, 
 J. Bloino, B. G. Janesko, R. Gomperts, B. Mennucci, H. P. Hratchian, 
 J. V. Ortiz, A. F. Izmaylov, J. L. Sonnenberg, D. Williams-Young, 
 F. Ding, F. Lipparini, F. Egidi, J. Goings, B. Peng, A. Petrone, 
 T. Henderson, D. Ranasinghe, V. G. Zakrzewski, J. Gao, N. Rega, 
 G. Zheng, W. Liang, M. Hada, M. Ehara, K. Toyota, R. Fukuda, 
 J. Hasegawa, M. Ishida, T. Nakajima, Y. Honda, O. Kitao, H. Nakai, 
 T. Vreven, K. Throssell, J. A. Montgomery, Jr., J. E. Peralta, 
 F. Ogliaro, M. J. Bearpark, J. J. Heyd, E. N. Brothers, K. N. Kudin, 
 V. N. Staroverov, T. A. Keith, R. Kobayashi, J. Normand, 
 K. Raghavachari, A. P. Rendell, J. C. Burant, S. S. Iyengar, 
 J. Tomasi, M. Cossi, J. M. Millam, M. Klene, C. Adamo, R. Cammi, 
 J. W. Ochterski, R. L. Martin, K. Morokuma, O. Farkas, 
 J. B. Foresman, and D. J. Fox, Gaussian, Inc., Wallingford CT, 2019.
 
 ******************************************
 Gaussian 16:  ES64L-G16RevC.02  7-Dec-2021
                16-Nov-2025 
 ******************************************
 %mem=12000MB
 %nproc=8
 Will use up to    8 processors via shared memory.
 %chk=spiro_mol-conf_04_freq.chk
 -----------------------------------------------------
 # b3lyp/6-31G* freq=intmodes iop(7/75=-1) iop(1/33=3)
 -----------------------------------------------------
 1/10=4,18=20,30=1,33=3,38=1/1,3;
 2/9=110,12=2,17=6,18=5,40=1/2;
 3/5=1,6=6,7=1,11=2,25=1,30=1,71=2,74=-5,140=1/1,2,3;
 4//1;
 5/5=2,38=5,98=1/2;
 8/6=4,10=90,11=11/1;
 11/6=1,8=1,9=11,15=111,16=1/1,2,10;
 10/6=1/2;
 6/7=2,8=2,9=2,10=2,28=1/1;
 7/8=21,10=1,25=1,75=-1/1,2,3,16;
 1/10=4,18=20,30=1,33=3/3;
 99//99;
 ONIOM data not found on unit 2.
 ---------
 spiro_mol
 ---------
 TstMul:  ICh=     0
 TstMul:  Mul=     1
 TstMul:  ICh=     0
 TstMul:  Mul=     1
 Symbolic Z-matrix:
 Charge =  0 Multiplicity = 1
 O                     4.448     0.1972   -2.4583 
 C                     3.9415   -0.0451   -1.3639 
 C                     4.8272   -0.2939   -0.204 
 C                     4.3103   -0.6057    0.9896 
 C                     2.8371   -0.6667    1.2692 
 C                     1.9775    0.1072    0.2413 
 C                     0.4862   -0.3281    0.4309 
 N                    -0.4445    0.4276   -0.4304 
 C                    -1.8604    0.1899   -0.0916 
 C                    -2.3091   -1.262    -0.3175 
 C                    -3.7777   -1.5418   -0.1375 
 C                    -4.826    -0.7637   -0.8919 
 C                    -4.7282   -0.6347    0.6046 
 C                    -0.1172    1.8818   -0.3627 
 C                     1.        2.2744    0.6262 
 F                     1.329     3.5779    0.4605 
 F                     0.5733    2.1386    1.907 
 O                     2.1908    1.5151    0.4911 
 C                     2.4456   -0.1914   -1.1927 
 H                     5.8941   -0.2372   -0.3846 
 H                     4.9822   -0.8164    1.8182 
 H                     2.6671   -0.2437    2.2675 
 H                     2.5463   -1.7237    1.3053 
 H                     0.2041   -0.1998    1.4848 
 H                     0.4055   -1.3976    0.203 
 H                    -2.4741    0.8386   -0.7279 
 H                    -2.0545    0.4833    0.9479 
 H                    -2.0269   -1.5792   -1.3293 
 H                    -1.7737   -1.9185    0.3785 
 H                    -3.948    -2.6124   -0.0543 
 H                    -5.6682   -1.3133   -1.2992 
 H                    -4.5259    0.0811   -1.5004 
 H                    -5.505    -1.1002    1.2029 
 H                    -4.3859    0.3105    1.0064 
 H                     0.2002    2.1774   -1.3698 
 H                    -1.0038    2.4862   -0.1345 
 H                     2.1836   -1.2144   -1.4874 
 H                     1.9796    0.507    -1.8972 
 
 RdStrC is calling ZToCFu for IStruc=1 NZ=    38.
                                ZToCFu                                
 ---------------------------------------------------------------------
 Center     Atomic      Atomic             Coordinates (Angstroms)
 Number     Number       Type             X           Y           Z
 ---------------------------------------------------------------------
      1          8           0        4.448000    0.197200   -2.458300
      2          6           0        3.941500   -0.045100   -1.363900
      3          6           0        4.827200   -0.293900   -0.204000
      4          6           0        4.310300   -0.605700    0.989600
      5          6           0        2.837100   -0.666700    1.269200
      6          6           0        1.977500    0.107200    0.241300
      7          6           0        0.486200   -0.328100    0.430900
      8          7           0       -0.444500    0.427600   -0.430400
      9          6           0       -1.860400    0.189900   -0.091600
     10          6           0       -2.309100   -1.262000   -0.317500
     11          6           0       -3.777700   -1.541800   -0.137500
     12          6           0       -4.826000   -0.763700   -0.891900
     13          6           0       -4.728200   -0.634700    0.604600
     14          6           0       -0.117200    1.881800   -0.362700
     15          6           0        1.000000    2.274400    0.626200
     16          9           0        1.329000    3.577900    0.460500
     17          9           0        0.573300    2.138600    1.907000
     18          8           0        2.190800    1.515100    0.491100
     19          6           0        2.445600   -0.191400   -1.192700
     20          1           0        5.894100   -0.237200   -0.384600
     21          1           0        4.982200   -0.816400    1.818200
     22          1           0        2.667100   -0.243700    2.267500
     23          1           0        2.546300   -1.723700    1.305300
     24          1           0        0.204100   -0.199800    1.484800
     25          1           0        0.405500   -1.397600    0.203000
     26          1           0       -2.474100    0.838600   -0.727900
     27          1           0       -2.054500    0.483300    0.947900
     28          1           0       -2.026900   -1.579200   -1.329300
     29          1           0       -1.773700   -1.918500    0.378500
     30          1           0       -3.948000   -2.612400   -0.054300
     31          1           0       -5.668200   -1.313300   -1.299200
     32          1           0       -4.525900    0.081100   -1.500400
     33          1           0       -5.505000   -1.100200    1.202900
     34          1           0       -4.385900    0.310500    1.006400
     35          1           0        0.200200    2.177400   -1.369800
     36          1           0       -1.003800    2.486200   -0.134500
     37          1           0        2.183600   -1.214400   -1.487400
     38          1           0        1.979600    0.507000   -1.897200
 ---------------------------------------------------------------------
 PrtBox:  NBox=     7 Levels=  3 BoxLen=    8.00 SMaxX=       21.85
          Shift=           10.711346            4.936721            4.645514
 Box      1 Number                   0 centers from      1 to     14:
            I=     1 IX=     9 XYZ=      1      1      1 Ind=                   0
            I=     2 IX=    10 XYZ=      1      1      1 Ind=                   0
            I=     3 IX=    11 XYZ=      1      1      1 Ind=                   0
            I=     4 IX=    12 XYZ=      1      1      1 Ind=                   0
            I=     5 IX=    13 XYZ=      1      1      1 Ind=                   0
            I=     6 IX=    26 XYZ=      1      1      1 Ind=                   0
            I=     7 IX=    27 XYZ=      1      1      1 Ind=                   0
            I=     8 IX=    28 XYZ=      1      1      1 Ind=                   0
            I=     9 IX=    29 XYZ=      1      1      1 Ind=                   0
            I=    10 IX=    30 XYZ=      1      1      1 Ind=                   0
            I=    11 IX=    31 XYZ=      1      1      1 Ind=                   0
            I=    12 IX=    32 XYZ=      1      1      1 Ind=                   0
            I=    13 IX=    33 XYZ=      1      1      1 Ind=                   0
            I=    14 IX=    34 XYZ=      1      1      1 Ind=                   0
 Box      2 Number                   4 centers from     15 to     24:
            I=    15 IX=     6 XYZ=      2      1      1 Ind=                   4
            I=    16 IX=     7 XYZ=      2      1      1 Ind=                   4
            I=    17 IX=     8 XYZ=      2      1      1 Ind=                   4
            I=    18 IX=    18 XYZ=      2      1      1 Ind=                   4
            I=    19 IX=    19 XYZ=      2      1      1 Ind=                   4
            I=    20 IX=    23 XYZ=      2      1      1 Ind=                   4
            I=    21 IX=    24 XYZ=      2      1      1 Ind=                   4
            I=    22 IX=    25 XYZ=      2      1      1 Ind=                   4
            I=    23 IX=    37 XYZ=      2      1      1 Ind=                   4
            I=    24 IX=    38 XYZ=      2      1      1 Ind=                   4
 Box      3 Number                   5 centers from     25 to     25:
            I=    25 IX=    22 XYZ=      2      1      2 Ind=                   5
 Box      4 Number                   6 centers from     26 to     30:
            I=    26 IX=    14 XYZ=      2      2      1 Ind=                   6
            I=    27 IX=    15 XYZ=      2      2      1 Ind=                   6
            I=    28 IX=    16 XYZ=      2      2      1 Ind=                   6
            I=    29 IX=    35 XYZ=      2      2      1 Ind=                   6
            I=    30 IX=    36 XYZ=      2      2      1 Ind=                   6
 Box      5 Number                   7 centers from     31 to     31:
            I=    31 IX=    17 XYZ=      2      2      2 Ind=                   7
 Box      6 Number                  32 centers from     32 to     37:
            I=    32 IX=     1 XYZ=      3      1      1 Ind=                  32
            I=    33 IX=     2 XYZ=      3      1      1 Ind=                  32
            I=    34 IX=     3 XYZ=      3      1      1 Ind=                  32
            I=    35 IX=     4 XYZ=      3      1      1 Ind=                  32
            I=    36 IX=     5 XYZ=      3      1      1 Ind=                  32
            I=    37 IX=    20 XYZ=      3      1      1 Ind=                  32
 Box      7 Number                  33 centers from     38 to     38:
            I=    38 IX=    21 XYZ=      3      1      2 Ind=                  33
 GenCBx connectivity:
 I=     1 IAn=  8 IBond, IBType=     2     2
 I=     2 IAn=  6 IBond, IBType=     1     2     3     1    19     1
 I=     3 IAn=  6 IBond, IBType=     2     1     4     2    20     1
 I=     4 IAn=  6 IBond, IBType=     3     2     5     1    21     1
 I=     5 IAn=  6 IBond, IBType=     4     1     6     1    22     1    23     1
 I=     6 IAn=  6 IBond, IBType=     5     1     7     1    18     1    19     1
 I=     7 IAn=  6 IBond, IBType=     6     1     8     1    24     1    25     1
 I=     8 IAn=  7 IBond, IBType=     7     1     9     1    14     1
 I=     9 IAn=  6 IBond, IBType=     8     1    10     1    26     1    27     1
 I=    10 IAn=  6 IBond, IBType=     9     1    11     1    28     1    29     1
 I=    11 IAn=  6 IBond, IBType=    10     1    12     1    13     1    30     1
 I=    12 IAn=  6 IBond, IBType=    11     1    13     1    31     1    32     1
 I=    13 IAn=  6 IBond, IBType=    11     1    12     1    33     1    34     1
 I=    14 IAn=  6 IBond, IBType=     8     1    15     1    35     1    36     1
 I=    15 IAn=  6 IBond, IBType=    14     1    16     1    17     1    18     1
 I=    16 IAn=  9 IBond, IBType=    15     1
 I=    17 IAn=  9 IBond, IBType=    15     1
 I=    18 IAn=  8 IBond, IBType=     6     1    15     1
 I=    19 IAn=  6 IBond, IBType=     2     1     6     1    37     1    38     1
 I=    20 IAn=  1 IBond, IBType=     3     1
 I=    21 IAn=  1 IBond, IBType=     4     1
 I=    22 IAn=  1 IBond, IBType=     5     1
 I=    23 IAn=  1 IBond, IBType=     5     1
 I=    24 IAn=  1 IBond, IBType=     7     1
 I=    25 IAn=  1 IBond, IBType=     7     1
 I=    26 IAn=  1 IBond, IBType=     9     1
 I=    27 IAn=  1 IBond, IBType=     9     1
 I=    28 IAn=  1 IBond, IBType=    10     1
 I=    29 IAn=  1 IBond, IBType=    10     1
 I=    30 IAn=  1 IBond, IBType=    11     1
 I=    31 IAn=  1 IBond, IBType=    12     1
 I=    32 IAn=  1 IBond, IBType=    12     1
 I=    33 IAn=  1 IBond, IBType=    13     1
 I=    34 IAn=  1 IBond, IBType=    13     1
 I=    35 IAn=  1 IBond, IBType=    14     1
 I=    36 IAn=  1 IBond, IBType=    14     1
 I=    37 IAn=  1 IBond, IBType=    19     1
 I=    38 IAn=  1 IBond, IBType=    19     1
 Connectivity in DoCon:
 I=     1 IAn=  8 IBond, RBType=     2  2.00
 I=     2 IAn=  6 IBond, RBType=     1  2.00     3  1.00    19  1.00
 I=     3 IAn=  6 IBond, RBType=     2  1.00     4  2.00    20  1.00
 I=     4 IAn=  6 IBond, RBType=     3  2.00     5  1.00    21  1.00
 I=     5 IAn=  6 IBond, RBType=     4  1.00     6  1.00    22  1.00    23  1.00
 I=     6 IAn=  6 IBond, RBType=     5  1.00     7  1.00    18  1.00    19  1.00
 I=     7 IAn=  6 IBond, RBType=     6  1.00     8  1.00    24  1.00    25  1.00
 I=     8 IAn=  7 IBond, RBType=     7  1.00     9  1.00    14  1.00
 I=     9 IAn=  6 IBond, RBType=     8  1.00    10  1.00    26  1.00    27  1.00
 I=    10 IAn=  6 IBond, RBType=     9  1.00    11  1.00    28  1.00    29  1.00
 I=    11 IAn=  6 IBond, RBType=    10  1.00    12  1.00    13  1.00    30  1.00
 I=    12 IAn=  6 IBond, RBType=    11  1.00    13  1.00    31  1.00    32  1.00
 I=    13 IAn=  6 IBond, RBType=    11  1.00    12  1.00    33  1.00    34  1.00
 I=    14 IAn=  6 IBond, RBType=     8  1.00    15  1.00    35  1.00    36  1.00
 I=    15 IAn=  6 IBond, RBType=    14  1.00    16  1.00    17  1.00    18  1.00
 I=    16 IAn=  9 IBond, RBType=    15  1.00
 I=    17 IAn=  9 IBond, RBType=    15  1.00
 I=    18 IAn=  8 IBond, RBType=     6  1.00    15  1.00
 I=    19 IAn=  6 IBond, RBType=     2  1.00     6  1.00    37  1.00    38  1.00
 I=    20 IAn=  1 IBond, RBType=     3  1.00
 I=    21 IAn=  1 IBond, RBType=     4  1.00
 I=    22 IAn=  1 IBond, RBType=     5  1.00
 I=    23 IAn=  1 IBond, RBType=     5  1.00
 I=    24 IAn=  1 IBond, RBType=     7  1.00
 I=    25 IAn=  1 IBond, RBType=     7  1.00
 I=    26 IAn=  1 IBond, RBType=     9  1.00
 I=    27 IAn=  1 IBond, RBType=     9  1.00
 I=    28 IAn=  1 IBond, RBType=    10  1.00
 I=    29 IAn=  1 IBond, RBType=    10  1.00
 I=    30 IAn=  1 IBond, RBType=    11  1.00
 I=    31 IAn=  1 IBond, RBType=    12  1.00
 I=    32 IAn=  1 IBond, RBType=    12  1.00
 I=    33 IAn=  1 IBond, RBType=    13  1.00
 I=    34 IAn=  1 IBond, RBType=    13  1.00
 I=    35 IAn=  1 IBond, RBType=    14  1.00
 I=    36 IAn=  1 IBond, RBType=    14  1.00
 I=    37 IAn=  1 IBond, RBType=    19  1.00
 I=    38 IAn=  1 IBond, RBType=    19  1.00
 After GenITR:
 ITRead=  0  0  0  0  0  0  0  0  0  0  0  0  0  0  0  0  0  0  0  0
 ITRead=  0  0  0  0  0  0  0  0  0  0  0  0  0  0  0  0  0  0
 MicOpt= -1 -1 -1 -1 -1 -1 -1 -1 -1 -1 -1 -1 -1 -1 -1 -1 -1 -1 -1 -1
 MicOpt= -1 -1 -1 -1 -1 -1 -1 -1 -1 -1 -1 -1 -1 -1 -1 -1 -1 -1
 List IsCon N=     38 M=      2:
 I=      1 Vals=      2      2 |
 I=      2 Vals=      1      2 |      3      1 |     19      1 |
 I=      3 Vals=      2      1 |      4      2 |     20      1 |
 I=      4 Vals=      3      2 |      5      1 |     21      1 |
 I=      5 Vals=      4      1 |      6      1 |     22      1 |     23      1 |
 I=      6 Vals=      5      1 |      7      1 |     18      1 |     19      1 |
 I=      7 Vals=      6      1 |      8      1 |     24      1 |     25      1 |
 I=      8 Vals=      7      1 |      9      1 |     14      1 |
 I=      9 Vals=      8      1 |     10      1 |     26      1 |     27      1 |
 I=     10 Vals=      9      1 |     11      1 |     28      1 |     29      1 |
 I=     11 Vals=     10      1 |     12      1 |     13      1 |     30      1 |
 I=     12 Vals=     11      1 |     13      1 |     31      1 |     32      1 |
 I=     13 Vals=     11      1 |     12      1 |     33      1 |     34      1 |
 I=     14 Vals=      8      1 |     15      1 |     35      1 |     36      1 |
 I=     15 Vals=     14      1 |     16      1 |     17      1 |     18      1 |
 I=     16 Vals=     15      1 |
 I=     17 Vals=     15      1 |
 I=     18 Vals=      6      1 |     15      1 |
 I=     19 Vals=      2      1 |      6      1 |     37      1 |     38      1 |
 I=     20 Vals=      3      1 |
 I=     21 Vals=      4      1 |
 I=     22 Vals=      5      1 |
 I=     23 Vals=      5      1 |
 I=     24 Vals=      7      1 |
 I=     25 Vals=      7      1 |
 I=     26 Vals=      9      1 |
 I=     27 Vals=      9      1 |
 I=     28 Vals=     10      1 |
 I=     29 Vals=     10      1 |
 I=     30 Vals=     11      1 |
 I=     31 Vals=     12      1 |
 I=     32 Vals=     12      1 |
 I=     33 Vals=     13      1 |
 I=     34 Vals=     13      1 |
 I=     35 Vals=     14      1 |
 I=     36 Vals=     14      1 |
 I=     37 Vals=     19      1 |
 I=     38 Vals=     19      1 |
 Coordinate R1 contains atom 1 which is already in QM block.
 Coordinate R1 contains atom 2 which is already in QM block.
 Coordinate R2 contains atom 2 which is already in QM block.
 Coordinate R2 contains atom 3 which is already in QM block.
 Coordinate R3 contains atom 2 which is already in QM block.
 Coordinate R3 contains atom 19 which is already in QM block.
 Coordinate R4 contains atom 3 which is already in QM block.
 Coordinate R4 contains atom 4 which is already in QM block.
 Coordinate R5 contains atom 3 which is already in QM block.
 Coordinate R5 contains atom 20 which is already in QM block.
 Coordinate R6 contains atom 4 which is already in QM block.
 Coordinate R6 contains atom 5 which is already in QM block.
 Coordinate R7 contains atom 4 which is already in QM block.
 Coordinate R7 contains atom 21 which is already in QM block.
 Coordinate R8 contains atom 5 which is already in QM block.
 Coordinate R8 contains atom 6 which is already in QM block.
 Coordinate R9 contains atom 5 which is already in QM block.
 Coordinate R9 contains atom 22 which is already in QM block.
 Coordinate R10 contains atom 5 which is already in QM block.
 Coordinate R10 contains atom 23 which is already in QM block.
 Coordinate R11 contains atom 6 which is already in QM block.
 Coordinate R11 contains atom 7 which is already in QM block.
 Coordinate R12 contains atom 6 which is already in QM block.
 Coordinate R12 contains atom 18 which is already in QM block.
 Coordinate R13 contains atom 6 which is already in QM block.
 Coordinate R13 contains atom 19 which is already in QM block.
 Coordinate R14 contains atom 7 which is already in QM block.
 Coordinate R14 contains atom 8 which is already in QM block.
 Coordinate R15 contains atom 7 which is already in QM block.
 Coordinate R15 contains atom 24 which is already in QM block.
 Coordinate R16 contains atom 7 which is already in QM block.
 Coordinate R16 contains atom 25 which is already in QM block.
 Coordinate R17 contains atom 8 which is already in QM block.
 Coordinate R17 contains atom 9 which is already in QM block.
 Coordinate R18 contains atom 8 which is already in QM block.
 Coordinate R18 contains atom 14 which is already in QM block.
 Coordinate R19 contains atom 9 which is already in QM block.
 Coordinate R19 contains atom 10 which is already in QM block.
 Coordinate R20 contains atom 9 which is already in QM block.
 Coordinate R20 contains atom 26 which is already in QM block.
 Coordinate R21 contains atom 9 which is already in QM block.
 Coordinate R21 contains atom 27 which is already in QM block.
 Coordinate R22 contains atom 10 which is already in QM block.
 Coordinate R22 contains atom 11 which is already in QM block.
 Coordinate R23 contains atom 10 which is already in QM block.
 Coordinate R23 contains atom 28 which is already in QM block.
 Coordinate R24 contains atom 10 which is already in QM block.
 Coordinate R24 contains atom 29 which is already in QM block.
 Coordinate R25 contains atom 11 which is already in QM block.
 Coordinate R25 contains atom 12 which is already in QM block.
 Coordinate R26 contains atom 11 which is already in QM block.
 Coordinate R26 contains atom 13 which is already in QM block.
 Coordinate R27 contains atom 11 which is already in QM block.
 Coordinate R27 contains atom 30 which is already in QM block.
 Coordinate R28 contains atom 12 which is already in QM block.
 Coordinate R28 contains atom 13 which is already in QM block.
 Coordinate R29 contains atom 12 which is already in QM block.
 Coordinate R29 contains atom 31 which is already in QM block.
 Coordinate R30 contains atom 12 which is already in QM block.
 Coordinate R30 contains atom 32 which is already in QM block.
 Coordinate R31 contains atom 13 which is already in QM block.
 Coordinate R31 contains atom 33 which is already in QM block.
 Coordinate R32 contains atom 13 which is already in QM block.
 Coordinate R32 contains atom 34 which is already in QM block.
 Coordinate R33 contains atom 14 which is already in QM block.
 Coordinate R33 contains atom 15 which is already in QM block.
 Coordinate R34 contains atom 14 which is already in QM block.
 Coordinate R34 contains atom 35 which is already in QM block.
 Coordinate R35 contains atom 14 which is already in QM block.
 Coordinate R35 contains atom 36 which is already in QM block.
 Coordinate R36 contains atom 15 which is already in QM block.
 Coordinate R36 contains atom 16 which is already in QM block.
 Coordinate R37 contains atom 15 which is already in QM block.
 Coordinate R37 contains atom 17 which is already in QM block.
 Coordinate R38 contains atom 15 which is already in QM block.
 Coordinate R38 contains atom 18 which is already in QM block.
 Coordinate R39 contains atom 19 which is already in QM block.
 Coordinate R39 contains atom 37 which is already in QM block.
 Coordinate R40 contains atom 19 which is already in QM block.
 Coordinate R40 contains atom 38 which is already in QM block.
 Coordinate A1 contains atom 1 which is already in QM block.
 Coordinate A1 contains atom 2 which is already in QM block.
 Coordinate A1 contains atom 2 which is already in QM block.
 Coordinate A2 contains atom 1 which is already in QM block.
 Coordinate A2 contains atom 2 which is already in QM block.
 Coordinate A2 contains atom 2 which is already in QM block.
 Coordinate A3 contains atom 3 which is already in QM block.
 Coordinate A3 contains atom 2 which is already in QM block.
 Coordinate A3 contains atom 2 which is already in QM block.
 Coordinate A4 contains atom 2 which is already in QM block.
 Coordinate A4 contains atom 3 which is already in QM block.
 Coordinate A4 contains atom 3 which is already in QM block.
 Coordinate A5 contains atom 2 which is already in QM block.
 Coordinate A5 contains atom 3 which is already in QM block.
 Coordinate A5 contains atom 3 which is already in QM block.
 Coordinate A6 contains atom 4 which is already in QM block.
 Coordinate A6 contains atom 3 which is already in QM block.
 Coordinate A6 contains atom 3 which is already in QM block.
 Coordinate A7 contains atom 3 which is already in QM block.
 Coordinate A7 contains atom 4 which is already in QM block.
 Coordinate A7 contains atom 4 which is already in QM block.
 Coordinate A8 contains atom 3 which is already in QM block.
 Coordinate A8 contains atom 4 which is already in QM block.
 Coordinate A8 contains atom 4 which is already in QM block.
 Coordinate A9 contains atom 5 which is already in QM block.
 Coordinate A9 contains atom 4 which is already in QM block.
 Coordinate A9 contains atom 4 which is already in QM block.
 Coordinate A10 contains atom 4 which is already in QM block.
 Coordinate A10 contains atom 5 which is already in QM block.
 Coordinate A10 contains atom 5 which is already in QM block.
 Coordinate A11 contains atom 4 which is already in QM block.
 Coordinate A11 contains atom 5 which is already in QM block.
 Coordinate A11 contains atom 5 which is already in QM block.
 Coordinate A12 contains atom 4 which is already in QM block.
 Coordinate A12 contains atom 5 which is already in QM block.
 Coordinate A12 contains atom 5 which is already in QM block.
 Coordinate A13 contains atom 6 which is already in QM block.
 Coordinate A13 contains atom 5 which is already in QM block.
 Coordinate A13 contains atom 5 which is already in QM block.
 Coordinate A14 contains atom 6 which is already in QM block.
 Coordinate A14 contains atom 5 which is already in QM block.
 Coordinate A14 contains atom 5 which is already in QM block.
 Coordinate A15 contains atom 22 which is already in QM block.
 Coordinate A15 contains atom 5 which is already in QM block.
 Coordinate A15 contains atom 5 which is already in QM block.
 Coordinate A16 contains atom 5 which is already in QM block.
 Coordinate A16 contains atom 6 which is already in QM block.
 Coordinate A16 contains atom 6 which is already in QM block.
 Coordinate A17 contains atom 5 which is already in QM block.
 Coordinate A17 contains atom 6 which is already in QM block.
 Coordinate A17 contains atom 6 which is already in QM block.
 Coordinate A18 contains atom 5 which is already in QM block.
 Coordinate A18 contains atom 6 which is already in QM block.
 Coordinate A18 contains atom 6 which is already in QM block.
 Coordinate A19 contains atom 7 which is already in QM block.
 Coordinate A19 contains atom 6 which is already in QM block.
 Coordinate A19 contains atom 6 which is already in QM block.
 Coordinate A20 contains atom 7 which is already in QM block.
 Coordinate A20 contains atom 6 which is already in QM block.
 Coordinate A20 contains atom 6 which is already in QM block.
 Coordinate A21 contains atom 18 which is already in QM block.
 Coordinate A21 contains atom 6 which is already in QM block.
 Coordinate A21 contains atom 6 which is already in QM block.
 Coordinate A22 contains atom 6 which is already in QM block.
 Coordinate A22 contains atom 7 which is already in QM block.
 Coordinate A22 contains atom 7 which is already in QM block.
 Coordinate A23 contains atom 6 which is already in QM block.
 Coordinate A23 contains atom 7 which is already in QM block.
 Coordinate A23 contains atom 7 which is already in QM block.
 Coordinate A24 contains atom 6 which is already in QM block.
 Coordinate A24 contains atom 7 which is already in QM block.
 Coordinate A24 contains atom 7 which is already in QM block.
 Coordinate A25 contains atom 8 which is already in QM block.
 Coordinate A25 contains atom 7 which is already in QM block.
 Coordinate A25 contains atom 7 which is already in QM block.
 Coordinate A26 contains atom 8 which is already in QM block.
 Coordinate A26 contains atom 7 which is already in QM block.
 Coordinate A26 contains atom 7 which is already in QM block.
 Coordinate A27 contains atom 24 which is already in QM block.
 Coordinate A27 contains atom 7 which is already in QM block.
 Coordinate A27 contains atom 7 which is already in QM block.
 Coordinate A28 contains atom 7 which is already in QM block.
 Coordinate A28 contains atom 8 which is already in QM block.
 Coordinate A28 contains atom 8 which is already in QM block.
 Coordinate A29 contains atom 7 which is already in QM block.
 Coordinate A29 contains atom 8 which is already in QM block.
 Coordinate A29 contains atom 8 which is already in QM block.
 Coordinate A30 contains atom 9 which is already in QM block.
 Coordinate A30 contains atom 8 which is already in QM block.
 Coordinate A30 contains atom 8 which is already in QM block.
 Coordinate A31 contains atom 8 which is already in QM block.
 Coordinate A31 contains atom 9 which is already in QM block.
 Coordinate A31 contains atom 9 which is already in QM block.
 Coordinate A32 contains atom 8 which is already in QM block.
 Coordinate A32 contains atom 9 which is already in QM block.
 Coordinate A32 contains atom 9 which is already in QM block.
 Coordinate A33 contains atom 8 which is already in QM block.
 Coordinate A33 contains atom 9 which is already in QM block.
 Coordinate A33 contains atom 9 which is already in QM block.
 Coordinate A34 contains atom 10 which is already in QM block.
 Coordinate A34 contains atom 9 which is already in QM block.
 Coordinate A34 contains atom 9 which is already in QM block.
 Coordinate A35 contains atom 10 which is already in QM block.
 Coordinate A35 contains atom 9 which is already in QM block.
 Coordinate A35 contains atom 9 which is already in QM block.
 Coordinate A36 contains atom 26 which is already in QM block.
 Coordinate A36 contains atom 9 which is already in QM block.
 Coordinate A36 contains atom 9 which is already in QM block.
 Coordinate A37 contains atom 9 which is already in QM block.
 Coordinate A37 contains atom 10 which is already in QM block.
 Coordinate A37 contains atom 10 which is already in QM block.
 Coordinate A38 contains atom 9 which is already in QM block.
 Coordinate A38 contains atom 10 which is already in QM block.
 Coordinate A38 contains atom 10 which is already in QM block.
 Coordinate A39 contains atom 9 which is already in QM block.
 Coordinate A39 contains atom 10 which is already in QM block.
 Coordinate A39 contains atom 10 which is already in QM block.
 Coordinate A40 contains atom 11 which is already in QM block.
 Coordinate A40 contains atom 10 which is already in QM block.
 Coordinate A40 contains atom 10 which is already in QM block.
 Coordinate A41 contains atom 11 which is already in QM block.
 Coordinate A41 contains atom 10 which is already in QM block.
 Coordinate A41 contains atom 10 which is already in QM block.
 Coordinate A42 contains atom 28 which is already in QM block.
 Coordinate A42 contains atom 10 which is already in QM block.
 Coordinate A42 contains atom 10 which is already in QM block.
 Coordinate A43 contains atom 10 which is already in QM block.
 Coordinate A43 contains atom 11 which is already in QM block.
 Coordinate A43 contains atom 11 which is already in QM block.
 Coordinate A44 contains atom 10 which is already in QM block.
 Coordinate A44 contains atom 11 which is already in QM block.
 Coordinate A44 contains atom 11 which is already in QM block.
 Coordinate A45 contains atom 10 which is already in QM block.
 Coordinate A45 contains atom 11 which is already in QM block.
 Coordinate A45 contains atom 11 which is already in QM block.
 Coordinate A46 contains atom 12 which is already in QM block.
 Coordinate A46 contains atom 11 which is already in QM block.
 Coordinate A46 contains atom 11 which is already in QM block.
 Coordinate A47 contains atom 13 which is already in QM block.
 Coordinate A47 contains atom 11 which is already in QM block.
 Coordinate A47 contains atom 11 which is already in QM block.
 Coordinate A48 contains atom 11 which is already in QM block.
 Coordinate A48 contains atom 12 which is already in QM block.
 Coordinate A48 contains atom 12 which is already in QM block.
 Coordinate A49 contains atom 11 which is already in QM block.
 Coordinate A49 contains atom 12 which is already in QM block.
 Coordinate A49 contains atom 12 which is already in QM block.
 Coordinate A50 contains atom 13 which is already in QM block.
 Coordinate A50 contains atom 12 which is already in QM block.
 Coordinate A50 contains atom 12 which is already in QM block.
 Coordinate A51 contains atom 13 which is already in QM block.
 Coordinate A51 contains atom 12 which is already in QM block.
 Coordinate A51 contains atom 12 which is already in QM block.
 Coordinate A52 contains atom 31 which is already in QM block.
 Coordinate A52 contains atom 12 which is already in QM block.
 Coordinate A52 contains atom 12 which is already in QM block.
 Coordinate A53 contains atom 11 which is already in QM block.
 Coordinate A53 contains atom 13 which is already in QM block.
 Coordinate A53 contains atom 13 which is already in QM block.
 Coordinate A54 contains atom 11 which is already in QM block.
 Coordinate A54 contains atom 13 which is already in QM block.
 Coordinate A54 contains atom 13 which is already in QM block.
 Coordinate A55 contains atom 12 which is already in QM block.
 Coordinate A55 contains atom 13 which is already in QM block.
 Coordinate A55 contains atom 13 which is already in QM block.
 Coordinate A56 contains atom 12 which is already in QM block.
 Coordinate A56 contains atom 13 which is already in QM block.
 Coordinate A56 contains atom 13 which is already in QM block.
 Coordinate A57 contains atom 33 which is already in QM block.
 Coordinate A57 contains atom 13 which is already in QM block.
 Coordinate A57 contains atom 13 which is already in QM block.
 Coordinate A58 contains atom 8 which is already in QM block.
 Coordinate A58 contains atom 14 which is already in QM block.
 Coordinate A58 contains atom 14 which is already in QM block.
 Coordinate A59 contains atom 8 which is already in QM block.
 Coordinate A59 contains atom 14 which is already in QM block.
 Coordinate A59 contains atom 14 which is already in QM block.
 Coordinate A60 contains atom 8 which is already in QM block.
 Coordinate A60 contains atom 14 which is already in QM block.
 Coordinate A60 contains atom 14 which is already in QM block.
 Coordinate A61 contains atom 15 which is already in QM block.
 Coordinate A61 contains atom 14 which is already in QM block.
 Coordinate A61 contains atom 14 which is already in QM block.
 Coordinate A62 contains atom 15 which is already in QM block.
 Coordinate A62 contains atom 14 which is already in QM block.
 Coordinate A62 contains atom 14 which is already in QM block.
 Coordinate A63 contains atom 35 which is already in QM block.
 Coordinate A63 contains atom 14 which is already in QM block.
 Coordinate A63 contains atom 14 which is already in QM block.
 Coordinate A64 contains atom 14 which is already in QM block.
 Coordinate A64 contains atom 15 which is already in QM block.
 Coordinate A64 contains atom 15 which is already in QM block.
 Coordinate A65 contains atom 14 which is already in QM block.
 Coordinate A65 contains atom 15 which is already in QM block.
 Coordinate A65 contains atom 15 which is already in QM block.
 Coordinate A66 contains atom 14 which is already in QM block.
 Coordinate A66 contains atom 15 which is already in QM block.
 Coordinate A66 contains atom 15 which is already in QM block.
 Coordinate A67 contains atom 16 which is already in QM block.
 Coordinate A67 contains atom 15 which is already in QM block.
 Coordinate A67 contains atom 15 which is already in QM block.
 Coordinate A68 contains atom 16 which is already in QM block.
 Coordinate A68 contains atom 15 which is already in QM block.
 Coordinate A68 contains atom 15 which is already in QM block.
 Coordinate A69 contains atom 17 which is already in QM block.
 Coordinate A69 contains atom 15 which is already in QM block.
 Coordinate A69 contains atom 15 which is already in QM block.
 Coordinate A70 contains atom 6 which is already in QM block.
 Coordinate A70 contains atom 18 which is already in QM block.
 Coordinate A70 contains atom 18 which is already in QM block.
 Coordinate A71 contains atom 2 which is already in QM block.
 Coordinate A71 contains atom 19 which is already in QM block.
 Coordinate A71 contains atom 19 which is already in QM block.
 Coordinate A72 contains atom 2 which is already in QM block.
 Coordinate A72 contains atom 19 which is already in QM block.
 Coordinate A72 contains atom 19 which is already in QM block.
 Coordinate A73 contains atom 2 which is already in QM block.
 Coordinate A73 contains atom 19 which is already in QM block.
 Coordinate A73 contains atom 19 which is already in QM block.
 Coordinate A74 contains atom 6 which is already in QM block.
 Coordinate A74 contains atom 19 which is already in QM block.
 Coordinate A74 contains atom 19 which is already in QM block.
 Coordinate A75 contains atom 6 which is already in QM block.
 Coordinate A75 contains atom 19 which is already in QM block.
 Coordinate A75 contains atom 19 which is already in QM block.
 Coordinate A76 contains atom 37 which is already in QM block.
 Coordinate A76 contains atom 19 which is already in QM block.
 Coordinate A76 contains atom 19 which is already in QM block.
 Coordinate D1 contains atom 1 which is already in QM block.
 Coordinate D1 contains atom 2 which is already in QM block.
 Coordinate D1 contains atom 3 which is already in QM block.
 Coordinate D1 contains atom 4 which is already in QM block.
 Coordinate D2 contains atom 1 which is already in QM block.
 Coordinate D2 contains atom 2 which is already in QM block.
 Coordinate D2 contains atom 3 which is already in QM block.
 Coordinate D2 contains atom 20 which is already in QM block.
 Coordinate D3 contains atom 19 which is already in QM block.
 Coordinate D3 contains atom 2 which is already in QM block.
 Coordinate D3 contains atom 3 which is already in QM block.
 Coordinate D3 contains atom 4 which is already in QM block.
 Coordinate D4 contains atom 19 which is already in QM block.
 Coordinate D4 contains atom 2 which is already in QM block.
 Coordinate D4 contains atom 3 which is already in QM block.
 Coordinate D4 contains atom 20 which is already in QM block.
 Coordinate D5 contains atom 1 which is already in QM block.
 Coordinate D5 contains atom 2 which is already in QM block.
 Coordinate D5 contains atom 19 which is already in QM block.
 Coordinate D5 contains atom 6 which is already in QM block.
 Coordinate D6 contains atom 1 which is already in QM block.
 Coordinate D6 contains atom 2 which is already in QM block.
 Coordinate D6 contains atom 19 which is already in QM block.
 Coordinate D6 contains atom 37 which is already in QM block.
 Coordinate D7 contains atom 1 which is already in QM block.
 Coordinate D7 contains atom 2 which is already in QM block.
 Coordinate D7 contains atom 19 which is already in QM block.
 Coordinate D7 contains atom 38 which is already in QM block.
 Coordinate D8 contains atom 3 which is already in QM block.
 Coordinate D8 contains atom 2 which is already in QM block.
 Coordinate D8 contains atom 19 which is already in QM block.
 Coordinate D8 contains atom 6 which is already in QM block.
 Coordinate D9 contains atom 3 which is already in QM block.
 Coordinate D9 contains atom 2 which is already in QM block.
 Coordinate D9 contains atom 19 which is already in QM block.
 Coordinate D9 contains atom 37 which is already in QM block.
 Coordinate D10 contains atom 3 which is already in QM block.
 Coordinate D10 contains atom 2 which is already in QM block.
 Coordinate D10 contains atom 19 which is already in QM block.
 Coordinate D10 contains atom 38 which is already in QM block.
 Coordinate D11 contains atom 2 which is already in QM block.
 Coordinate D11 contains atom 3 which is already in QM block.
 Coordinate D11 contains atom 4 which is already in QM block.
 Coordinate D11 contains atom 5 which is already in QM block.
 Coordinate D12 contains atom 2 which is already in QM block.
 Coordinate D12 contains atom 3 which is already in QM block.
 Coordinate D12 contains atom 4 which is already in QM block.
 Coordinate D12 contains atom 21 which is already in QM block.
 Coordinate D13 contains atom 20 which is already in QM block.
 Coordinate D13 contains atom 3 which is already in QM block.
 Coordinate D13 contains atom 4 which is already in QM block.
 Coordinate D13 contains atom 5 which is already in QM block.
 Coordinate D14 contains atom 20 which is already in QM block.
 Coordinate D14 contains atom 3 which is already in QM block.
 Coordinate D14 contains atom 4 which is already in QM block.
 Coordinate D14 contains atom 21 which is already in QM block.
 Coordinate D15 contains atom 3 which is already in QM block.
 Coordinate D15 contains atom 4 which is already in QM block.
 Coordinate D15 contains atom 5 which is already in QM block.
 Coordinate D15 contains atom 6 which is already in QM block.
 Coordinate D16 contains atom 3 which is already in QM block.
 Coordinate D16 contains atom 4 which is already in QM block.
 Coordinate D16 contains atom 5 which is already in QM block.
 Coordinate D16 contains atom 22 which is already in QM block.
 Coordinate D17 contains atom 3 which is already in QM block.
 Coordinate D17 contains atom 4 which is already in QM block.
 Coordinate D17 contains atom 5 which is already in QM block.
 Coordinate D17 contains atom 23 which is already in QM block.
 Coordinate D18 contains atom 21 which is already in QM block.
 Coordinate D18 contains atom 4 which is already in QM block.
 Coordinate D18 contains atom 5 which is already in QM block.
 Coordinate D18 contains atom 6 which is already in QM block.
 Coordinate D19 contains atom 21 which is already in QM block.
 Coordinate D19 contains atom 4 which is already in QM block.
 Coordinate D19 contains atom 5 which is already in QM block.
 Coordinate D19 contains atom 22 which is already in QM block.
 Coordinate D20 contains atom 21 which is already in QM block.
 Coordinate D20 contains atom 4 which is already in QM block.
 Coordinate D20 contains atom 5 which is already in QM block.
 Coordinate D20 contains atom 23 which is already in QM block.
 Coordinate D21 contains atom 4 which is already in QM block.
 Coordinate D21 contains atom 5 which is already in QM block.
 Coordinate D21 contains atom 6 which is already in QM block.
 Coordinate D21 contains atom 7 which is already in QM block.
 Coordinate D22 contains atom 4 which is already in QM block.
 Coordinate D22 contains atom 5 which is already in QM block.
 Coordinate D22 contains atom 6 which is already in QM block.
 Coordinate D22 contains atom 18 which is already in QM block.
 Coordinate D23 contains atom 4 which is already in QM block.
 Coordinate D23 contains atom 5 which is already in QM block.
 Coordinate D23 contains atom 6 which is already in QM block.
 Coordinate D23 contains atom 19 which is already in QM block.
 Coordinate D24 contains atom 22 which is already in QM block.
 Coordinate D24 contains atom 5 which is already in QM block.
 Coordinate D24 contains atom 6 which is already in QM block.
 Coordinate D24 contains atom 7 which is already in QM block.
 Coordinate D25 contains atom 22 which is already in QM block.
 Coordinate D25 contains atom 5 which is already in QM block.
 Coordinate D25 contains atom 6 which is already in QM block.
 Coordinate D25 contains atom 18 which is already in QM block.
 Coordinate D26 contains atom 22 which is already in QM block.
 Coordinate D26 contains atom 5 which is already in QM block.
 Coordinate D26 contains atom 6 which is already in QM block.
 Coordinate D26 contains atom 19 which is already in QM block.
 Coordinate D27 contains atom 23 which is already in QM block.
 Coordinate D27 contains atom 5 which is already in QM block.
 Coordinate D27 contains atom 6 which is already in QM block.
 Coordinate D27 contains atom 7 which is already in QM block.
 Coordinate D28 contains atom 23 which is already in QM block.
 Coordinate D28 contains atom 5 which is already in QM block.
 Coordinate D28 contains atom 6 which is already in QM block.
 Coordinate D28 contains atom 18 which is already in QM block.
 Coordinate D29 contains atom 23 which is already in QM block.
 Coordinate D29 contains atom 5 which is already in QM block.
 Coordinate D29 contains atom 6 which is already in QM block.
 Coordinate D29 contains atom 19 which is already in QM block.
 Coordinate D30 contains atom 5 which is already in QM block.
 Coordinate D30 contains atom 6 which is already in QM block.
 Coordinate D30 contains atom 7 which is already in QM block.
 Coordinate D30 contains atom 8 which is already in QM block.
 Coordinate D31 contains atom 5 which is already in QM block.
 Coordinate D31 contains atom 6 which is already in QM block.
 Coordinate D31 contains atom 7 which is already in QM block.
 Coordinate D31 contains atom 24 which is already in QM block.
 Coordinate D32 contains atom 5 which is already in QM block.
 Coordinate D32 contains atom 6 which is already in QM block.
 Coordinate D32 contains atom 7 which is already in QM block.
 Coordinate D32 contains atom 25 which is already in QM block.
 Coordinate D33 contains atom 18 which is already in QM block.
 Coordinate D33 contains atom 6 which is already in QM block.
 Coordinate D33 contains atom 7 which is already in QM block.
 Coordinate D33 contains atom 8 which is already in QM block.
 Coordinate D34 contains atom 18 which is already in QM block.
 Coordinate D34 contains atom 6 which is already in QM block.
 Coordinate D34 contains atom 7 which is already in QM block.
 Coordinate D34 contains atom 24 which is already in QM block.
 Coordinate D35 contains atom 18 which is already in QM block.
 Coordinate D35 contains atom 6 which is already in QM block.
 Coordinate D35 contains atom 7 which is already in QM block.
 Coordinate D35 contains atom 25 which is already in QM block.
 Coordinate D36 contains atom 19 which is already in QM block.
 Coordinate D36 contains atom 6 which is already in QM block.
 Coordinate D36 contains atom 7 which is already in QM block.
 Coordinate D36 contains atom 8 which is already in QM block.
 Coordinate D37 contains atom 19 which is already in QM block.
 Coordinate D37 contains atom 6 which is already in QM block.
 Coordinate D37 contains atom 7 which is already in QM block.
 Coordinate D37 contains atom 24 which is already in QM block.
 Coordinate D38 contains atom 19 which is already in QM block.
 Coordinate D38 contains atom 6 which is already in QM block.
 Coordinate D38 contains atom 7 which is already in QM block.
 Coordinate D38 contains atom 25 which is already in QM block.
 Coordinate D39 contains atom 5 which is already in QM block.
 Coordinate D39 contains atom 6 which is already in QM block.
 Coordinate D39 contains atom 18 which is already in QM block.
 Coordinate D39 contains atom 15 which is already in QM block.
 Coordinate D40 contains atom 7 which is already in QM block.
 Coordinate D40 contains atom 6 which is already in QM block.
 Coordinate D40 contains atom 18 which is already in QM block.
 Coordinate D40 contains atom 15 which is already in QM block.
 Coordinate D41 contains atom 19 which is already in QM block.
 Coordinate D41 contains atom 6 which is already in QM block.
 Coordinate D41 contains atom 18 which is already in QM block.
 Coordinate D41 contains atom 15 which is already in QM block.
 Coordinate D42 contains atom 5 which is already in QM block.
 Coordinate D42 contains atom 6 which is already in QM block.
 Coordinate D42 contains atom 19 which is already in QM block.
 Coordinate D42 contains atom 2 which is already in QM block.
 Coordinate D43 contains atom 5 which is already in QM block.
 Coordinate D43 contains atom 6 which is already in QM block.
 Coordinate D43 contains atom 19 which is already in QM block.
 Coordinate D43 contains atom 37 which is already in QM block.
 Coordinate D44 contains atom 5 which is already in QM block.
 Coordinate D44 contains atom 6 which is already in QM block.
 Coordinate D44 contains atom 19 which is already in QM block.
 Coordinate D44 contains atom 38 which is already in QM block.
 Coordinate D45 contains atom 7 which is already in QM block.
 Coordinate D45 contains atom 6 which is already in QM block.
 Coordinate D45 contains atom 19 which is already in QM block.
 Coordinate D45 contains atom 2 which is already in QM block.
 Coordinate D46 contains atom 7 which is already in QM block.
 Coordinate D46 contains atom 6 which is already in QM block.
 Coordinate D46 contains atom 19 which is already in QM block.
 Coordinate D46 contains atom 37 which is already in QM block.
 Coordinate D47 contains atom 7 which is already in QM block.
 Coordinate D47 contains atom 6 which is already in QM block.
 Coordinate D47 contains atom 19 which is already in QM block.
 Coordinate D47 contains atom 38 which is already in QM block.
 Coordinate D48 contains atom 18 which is already in QM block.
 Coordinate D48 contains atom 6 which is already in QM block.
 Coordinate D48 contains atom 19 which is already in QM block.
 Coordinate D48 contains atom 2 which is already in QM block.
 Coordinate D49 contains atom 18 which is already in QM block.
 Coordinate D49 contains atom 6 which is already in QM block.
 Coordinate D49 contains atom 19 which is already in QM block.
 Coordinate D49 contains atom 37 which is already in QM block.
 Coordinate D50 contains atom 18 which is already in QM block.
 Coordinate D50 contains atom 6 which is already in QM block.
 Coordinate D50 contains atom 19 which is already in QM block.
 Coordinate D50 contains atom 38 which is already in QM block.
 Coordinate D51 contains atom 6 which is already in QM block.
 Coordinate D51 contains atom 7 which is already in QM block.
 Coordinate D51 contains atom 8 which is already in QM block.
 Coordinate D51 contains atom 9 which is already in QM block.
 Coordinate D52 contains atom 6 which is already in QM block.
 Coordinate D52 contains atom 7 which is already in QM block.
 Coordinate D52 contains atom 8 which is already in QM block.
 Coordinate D52 contains atom 14 which is already in QM block.
 Coordinate D53 contains atom 24 which is already in QM block.
 Coordinate D53 contains atom 7 which is already in QM block.
 Coordinate D53 contains atom 8 which is already in QM block.
 Coordinate D53 contains atom 9 which is already in QM block.
 Coordinate D54 contains atom 24 which is already in QM block.
 Coordinate D54 contains atom 7 which is already in QM block.
 Coordinate D54 contains atom 8 which is already in QM block.
 Coordinate D54 contains atom 14 which is already in QM block.
 Coordinate D55 contains atom 25 which is already in QM block.
 Coordinate D55 contains atom 7 which is already in QM block.
 Coordinate D55 contains atom 8 which is already in QM block.
 Coordinate D55 contains atom 9 which is already in QM block.
 Coordinate D56 contains atom 25 which is already in QM block.
 Coordinate D56 contains atom 7 which is already in QM block.
 Coordinate D56 contains atom 8 which is already in QM block.
 Coordinate D56 contains atom 14 which is already in QM block.
 Coordinate D57 contains atom 7 which is already in QM block.
 Coordinate D57 contains atom 8 which is already in QM block.
 Coordinate D57 contains atom 9 which is already in QM block.
 Coordinate D57 contains atom 10 which is already in QM block.
 Coordinate D58 contains atom 7 which is already in QM block.
 Coordinate D58 contains atom 8 which is already in QM block.
 Coordinate D58 contains atom 9 which is already in QM block.
 Coordinate D58 contains atom 26 which is already in QM block.
 Coordinate D59 contains atom 7 which is already in QM block.
 Coordinate D59 contains atom 8 which is already in QM block.
 Coordinate D59 contains atom 9 which is already in QM block.
 Coordinate D59 contains atom 27 which is already in QM block.
 Coordinate D60 contains atom 14 which is already in QM block.
 Coordinate D60 contains atom 8 which is already in QM block.
 Coordinate D60 contains atom 9 which is already in QM block.
 Coordinate D60 contains atom 10 which is already in QM block.
 Coordinate D61 contains atom 14 which is already in QM block.
 Coordinate D61 contains atom 8 which is already in QM block.
 Coordinate D61 contains atom 9 which is already in QM block.
 Coordinate D61 contains atom 26 which is already in QM block.
 Coordinate D62 contains atom 14 which is already in QM block.
 Coordinate D62 contains atom 8 which is already in QM block.
 Coordinate D62 contains atom 9 which is already in QM block.
 Coordinate D62 contains atom 27 which is already in QM block.
 Coordinate D63 contains atom 7 which is already in QM block.
 Coordinate D63 contains atom 8 which is already in QM block.
 Coordinate D63 contains atom 14 which is already in QM block.
 Coordinate D63 contains atom 15 which is already in QM block.
 Coordinate D64 contains atom 7 which is already in QM block.
 Coordinate D64 contains atom 8 which is already in QM block.
 Coordinate D64 contains atom 14 which is already in QM block.
 Coordinate D64 contains atom 35 which is already in QM block.
 Coordinate D65 contains atom 7 which is already in QM block.
 Coordinate D65 contains atom 8 which is already in QM block.
 Coordinate D65 contains atom 14 which is already in QM block.
 Coordinate D65 contains atom 36 which is already in QM block.
 Coordinate D66 contains atom 9 which is already in QM block.
 Coordinate D66 contains atom 8 which is already in QM block.
 Coordinate D66 contains atom 14 which is already in QM block.
 Coordinate D66 contains atom 15 which is already in QM block.
 Coordinate D67 contains atom 9 which is already in QM block.
 Coordinate D67 contains atom 8 which is already in QM block.
 Coordinate D67 contains atom 14 which is already in QM block.
 Coordinate D67 contains atom 35 which is already in QM block.
 Coordinate D68 contains atom 9 which is already in QM block.
 Coordinate D68 contains atom 8 which is already in QM block.
 Coordinate D68 contains atom 14 which is already in QM block.
 Coordinate D68 contains atom 36 which is already in QM block.
 Coordinate D69 contains atom 8 which is already in QM block.
 Coordinate D69 contains atom 9 which is already in QM block.
 Coordinate D69 contains atom 10 which is already in QM block.
 Coordinate D69 contains atom 11 which is already in QM block.
 Coordinate D70 contains atom 8 which is already in QM block.
 Coordinate D70 contains atom 9 which is already in QM block.
 Coordinate D70 contains atom 10 which is already in QM block.
 Coordinate D70 contains atom 28 which is already in QM block.
 Coordinate D71 contains atom 8 which is already in QM block.
 Coordinate D71 contains atom 9 which is already in QM block.
 Coordinate D71 contains atom 10 which is already in QM block.
 Coordinate D71 contains atom 29 which is already in QM block.
 Coordinate D72 contains atom 26 which is already in QM block.
 Coordinate D72 contains atom 9 which is already in QM block.
 Coordinate D72 contains atom 10 which is already in QM block.
 Coordinate D72 contains atom 11 which is already in QM block.
 Coordinate D73 contains atom 26 which is already in QM block.
 Coordinate D73 contains atom 9 which is already in QM block.
 Coordinate D73 contains atom 10 which is already in QM block.
 Coordinate D73 contains atom 28 which is already in QM block.
 Coordinate D74 contains atom 26 which is already in QM block.
 Coordinate D74 contains atom 9 which is already in QM block.
 Coordinate D74 contains atom 10 which is already in QM block.
 Coordinate D74 contains atom 29 which is already in QM block.
 Coordinate D75 contains atom 27 which is already in QM block.
 Coordinate D75 contains atom 9 which is already in QM block.
 Coordinate D75 contains atom 10 which is already in QM block.
 Coordinate D75 contains atom 11 which is already in QM block.
 Coordinate D76 contains atom 27 which is already in QM block.
 Coordinate D76 contains atom 9 which is already in QM block.
 Coordinate D76 contains atom 10 which is already in QM block.
 Coordinate D76 contains atom 28 which is already in QM block.
 Coordinate D77 contains atom 27 which is already in QM block.
 Coordinate D77 contains atom 9 which is already in QM block.
 Coordinate D77 contains atom 10 which is already in QM block.
 Coordinate D77 contains atom 29 which is already in QM block.
 Coordinate D78 contains atom 9 which is already in QM block.
 Coordinate D78 contains atom 10 which is already in QM block.
 Coordinate D78 contains atom 11 which is already in QM block.
 Coordinate D78 contains atom 12 which is already in QM block.
 Coordinate D79 contains atom 9 which is already in QM block.
 Coordinate D79 contains atom 10 which is already in QM block.
 Coordinate D79 contains atom 11 which is already in QM block.
 Coordinate D79 contains atom 13 which is already in QM block.
 Coordinate D80 contains atom 9 which is already in QM block.
 Coordinate D80 contains atom 10 which is already in QM block.
 Coordinate D80 contains atom 11 which is already in QM block.
 Coordinate D80 contains atom 30 which is already in QM block.
 Coordinate D81 contains atom 28 which is already in QM block.
 Coordinate D81 contains atom 10 which is already in QM block.
 Coordinate D81 contains atom 11 which is already in QM block.
 Coordinate D81 contains atom 12 which is already in QM block.
 Coordinate D82 contains atom 28 which is already in QM block.
 Coordinate D82 contains atom 10 which is already in QM block.
 Coordinate D82 contains atom 11 which is already in QM block.
 Coordinate D82 contains atom 13 which is already in QM block.
 Coordinate D83 contains atom 28 which is already in QM block.
 Coordinate D83 contains atom 10 which is already in QM block.
 Coordinate D83 contains atom 11 which is already in QM block.
 Coordinate D83 contains atom 30 which is already in QM block.
 Coordinate D84 contains atom 29 which is already in QM block.
 Coordinate D84 contains atom 10 which is already in QM block.
 Coordinate D84 contains atom 11 which is already in QM block.
 Coordinate D84 contains atom 12 which is already in QM block.
 Coordinate D85 contains atom 29 which is already in QM block.
 Coordinate D85 contains atom 10 which is already in QM block.
 Coordinate D85 contains atom 11 which is already in QM block.
 Coordinate D85 contains atom 13 which is already in QM block.
 Coordinate D86 contains atom 29 which is already in QM block.
 Coordinate D86 contains atom 10 which is already in QM block.
 Coordinate D86 contains atom 11 which is already in QM block.
 Coordinate D86 contains atom 30 which is already in QM block.
 Coordinate D87 contains atom 10 which is already in QM block.
 Coordinate D87 contains atom 11 which is already in QM block.
 Coordinate D87 contains atom 12 which is already in QM block.
 Coordinate D87 contains atom 31 which is already in QM block.
 Coordinate D88 contains atom 10 which is already in QM block.
 Coordinate D88 contains atom 11 which is already in QM block.
 Coordinate D88 contains atom 12 which is already in QM block.
 Coordinate D88 contains atom 32 which is already in QM block.
 Coordinate D89 contains atom 30 which is already in QM block.
 Coordinate D89 contains atom 11 which is already in QM block.
 Coordinate D89 contains atom 12 which is already in QM block.
 Coordinate D89 contains atom 31 which is already in QM block.
 Coordinate D90 contains atom 30 which is already in QM block.
 Coordinate D90 contains atom 11 which is already in QM block.
 Coordinate D90 contains atom 12 which is already in QM block.
 Coordinate D90 contains atom 32 which is already in QM block.
 Coordinate D91 contains atom 10 which is already in QM block.
 Coordinate D91 contains atom 11 which is already in QM block.
 Coordinate D91 contains atom 13 which is already in QM block.
 Coordinate D91 contains atom 33 which is already in QM block.
 Coordinate D92 contains atom 10 which is already in QM block.
 Coordinate D92 contains atom 11 which is already in QM block.
 Coordinate D92 contains atom 13 which is already in QM block.
 Coordinate D92 contains atom 34 which is already in QM block.
 Coordinate D93 contains atom 30 which is already in QM block.
 Coordinate D93 contains atom 11 which is already in QM block.
 Coordinate D93 contains atom 13 which is already in QM block.
 Coordinate D93 contains atom 33 which is already in QM block.
 Coordinate D94 contains atom 30 which is already in QM block.
 Coordinate D94 contains atom 11 which is already in QM block.
 Coordinate D94 contains atom 13 which is already in QM block.
 Coordinate D94 contains atom 34 which is already in QM block.
 Coordinate D95 contains atom 31 which is already in QM block.
 Coordinate D95 contains atom 12 which is already in QM block.
 Coordinate D95 contains atom 13 which is already in QM block.
 Coordinate D95 contains atom 33 which is already in QM block.
 Coordinate D96 contains atom 31 which is already in QM block.
 Coordinate D96 contains atom 12 which is already in QM block.
 Coordinate D96 contains atom 13 which is already in QM block.
 Coordinate D96 contains atom 34 which is already in QM block.
 Coordinate D97 contains atom 32 which is already in QM block.
 Coordinate D97 contains atom 12 which is already in QM block.
 Coordinate D97 contains atom 13 which is already in QM block.
 Coordinate D97 contains atom 33 which is already in QM block.
 Coordinate D98 contains atom 32 which is already in QM block.
 Coordinate D98 contains atom 12 which is already in QM block.
 Coordinate D98 contains atom 13 which is already in QM block.
 Coordinate D98 contains atom 34 which is already in QM block.
 Coordinate D99 contains atom 8 which is already in QM block.
 Coordinate D99 contains atom 14 which is already in QM block.
 Coordinate D99 contains atom 15 which is already in QM block.
 Coordinate D99 contains atom 16 which is already in QM block.
 Coordinate D100 contains atom 8 which is already in QM block.
 Coordinate D100 contains atom 14 which is already in QM block.
 Coordinate D100 contains atom 15 which is already in QM block.
 Coordinate D100 contains atom 17 which is already in QM block.
 Coordinate D101 contains atom 8 which is already in QM block.
 Coordinate D101 contains atom 14 which is already in QM block.
 Coordinate D101 contains atom 15 which is already in QM block.
 Coordinate D101 contains atom 18 which is already in QM block.
 Coordinate D102 contains atom 35 which is already in QM block.
 Coordinate D102 contains atom 14 which is already in QM block.
 Coordinate D102 contains atom 15 which is already in QM block.
 Coordinate D102 contains atom 16 which is already in QM block.
 Coordinate D103 contains atom 35 which is already in QM block.
 Coordinate D103 contains atom 14 which is already in QM block.
 Coordinate D103 contains atom 15 which is already in QM block.
 Coordinate D103 contains atom 17 which is already in QM block.
 Coordinate D104 contains atom 35 which is already in QM block.
 Coordinate D104 contains atom 14 which is already in QM block.
 Coordinate D104 contains atom 15 which is already in QM block.
 Coordinate D104 contains atom 18 which is already in QM block.
 Coordinate D105 contains atom 36 which is already in QM block.
 Coordinate D105 contains atom 14 which is already in QM block.
 Coordinate D105 contains atom 15 which is already in QM block.
 Coordinate D105 contains atom 16 which is already in QM block.
 Coordinate D106 contains atom 36 which is already in QM block.
 Coordinate D106 contains atom 14 which is already in QM block.
 Coordinate D106 contains atom 15 which is already in QM block.
 Coordinate D106 contains atom 17 which is already in QM block.
 Coordinate D107 contains atom 36 which is already in QM block.
 Coordinate D107 contains atom 14 which is already in QM block.
 Coordinate D107 contains atom 15 which is already in QM block.
 Coordinate D107 contains atom 18 which is already in QM block.
 Coordinate D108 contains atom 14 which is already in QM block.
 Coordinate D108 contains atom 15 which is already in QM block.
 Coordinate D108 contains atom 18 which is already in QM block.
 Coordinate D108 contains atom 6 which is already in QM block.
 Coordinate D109 contains atom 16 which is already in QM block.
 Coordinate D109 contains atom 15 which is already in QM block.
 Coordinate D109 contains atom 18 which is already in QM block.
 Coordinate D109 contains atom 6 which is already in QM block.
 Coordinate D110 contains atom 17 which is already in QM block.
 Coordinate D110 contains atom 15 which is already in QM block.
 Coordinate D110 contains atom 18 which is already in QM block.
 Coordinate D110 contains atom 6 which is already in QM block.
 Saved connectivity
 I=     1 IAn=  8 IBond, RBType=     2  2.00
 I=     2 IAn=  6 IBond, RBType=     1  2.00     3  1.00    19  1.00
 I=     3 IAn=  6 IBond, RBType=     2  1.00     4  2.00    20  1.00
 I=     4 IAn=  6 IBond, RBType=     3  2.00     5  1.00    21  1.00
 I=     5 IAn=  6 IBond, RBType=     4  1.00     6  1.00    22  1.00    23  1.00
 I=     6 IAn=  6 IBond, RBType=     5  1.00     7  1.00    18  1.00    19  1.00
 I=     7 IAn=  6 IBond, RBType=     6  1.00     8  1.00    24  1.00    25  1.00
 I=     8 IAn=  7 IBond, RBType=     7  1.00     9  1.00    14  1.00
 I=     9 IAn=  6 IBond, RBType=     8  1.00    10  1.00    26  1.00    27  1.00
 I=    10 IAn=  6 IBond, RBType=     9  1.00    11  1.00    28  1.00    29  1.00
 I=    11 IAn=  6 IBond, RBType=    10  1.00    12  1.00    13  1.00    30  1.00
 I=    12 IAn=  6 IBond, RBType=    11  1.00    13  1.00    31  1.00    32  1.00
 I=    13 IAn=  6 IBond, RBType=    11  1.00    12  1.00    33  1.00    34  1.00
 I=    14 IAn=  6 IBond, RBType=     8  1.00    15  1.00    35  1.00    36  1.00
 I=    15 IAn=  6 IBond, RBType=    14  1.00    16  1.00    17  1.00    18  1.00
 I=    16 IAn=  9 IBond, RBType=    15  1.00
 I=    17 IAn=  9 IBond, RBType=    15  1.00
 I=    18 IAn=  8 IBond, RBType=     6  1.00    15  1.00
 I=    19 IAn=  6 IBond, RBType=     2  1.00     6  1.00    37  1.00    38  1.00
 I=    20 IAn=  1 IBond, RBType=     3  1.00
 I=    21 IAn=  1 IBond, RBType=     4  1.00
 I=    22 IAn=  1 IBond, RBType=     5  1.00
 I=    23 IAn=  1 IBond, RBType=     5  1.00
 I=    24 IAn=  1 IBond, RBType=     7  1.00
 I=    25 IAn=  1 IBond, RBType=     7  1.00
 I=    26 IAn=  1 IBond, RBType=     9  1.00
 I=    27 IAn=  1 IBond, RBType=     9  1.00
 I=    28 IAn=  1 IBond, RBType=    10  1.00
 I=    29 IAn=  1 IBond, RBType=    10  1.00
 I=    30 IAn=  1 IBond, RBType=    11  1.00
 I=    31 IAn=  1 IBond, RBType=    12  1.00
 I=    32 IAn=  1 IBond, RBType=    12  1.00
 I=    33 IAn=  1 IBond, RBType=    13  1.00
 I=    34 IAn=  1 IBond, RBType=    13  1.00
 I=    35 IAn=  1 IBond, RBType=    14  1.00
 I=    36 IAn=  1 IBond, RBType=    14  1.00
 I=    37 IAn=  1 IBond, RBType=    19  1.00
 I=    38 IAn=  1 IBond, RBType=    19  1.00
 ITRead=  0  0  0  0  0  0  0  0  0  0  0  0  0  0  0  0  0  0  0  0
 ITRead=  0  0  0  0  0  0  0  0  0  0  0  0  0  0  0  0  0  0
 MicOpt= -1 -1 -1 -1 -1 -1 -1 -1 -1 -1 -1 -1 -1 -1 -1 -1 -1 -1 -1 -1
 MicOpt= -1 -1 -1 -1 -1 -1 -1 -1 -1 -1 -1 -1 -1 -1 -1 -1 -1 -1
 NAtoms=     38 NQM=       38 NQMF=       0 NMMI=      0 NMMIF=      0
                NMic=       0 NMicF=      0.
 No MM parameters found.
 Leave Link  101 at Sun Nov 16 14:18:54 2025, MaxMem=  1572864000 cpu:               0.3 elap:               0.3

 GradGradGradGradGradGradGradGradGradGradGradGradGradGradGradGradGradGrad
 Berny optimization.
 GetPCM: File not found, return IValue=0.
 Optmz: redundant internal coordinate code flag= 1
 Initialization pass.
                           ----------------------------
                           !    Initial Parameters    !
                           ! (Angstroms and Degrees)  !
 --------------------------                            --------------------------
 ! Name  Definition              Value          Derivative Info.                !
 --------------------------------------------------------------------------------
 ! R1    R(1,2)                  1.23           calculate D2E/DX2 analytically  !
 ! R2    R(2,3)                  1.4805         calculate D2E/DX2 analytically  !
 ! R3    R(2,19)                 1.5128         calculate D2E/DX2 analytically  !
 ! R4    R(3,4)                  1.3376         calculate D2E/DX2 analytically  !
 ! R5    R(3,20)                 1.0836         calculate D2E/DX2 analytically  !
 ! R6    R(4,5)                  1.5007         calculate D2E/DX2 analytically  !
 ! R7    R(4,21)                 1.0874         calculate D2E/DX2 analytically  !
 ! R8    R(5,6)                  1.5474         calculate D2E/DX2 analytically  !
 ! R9    R(5,22)                 1.0975         calculate D2E/DX2 analytically  !
 ! R10   R(5,23)                 1.0969         calculate D2E/DX2 analytically  !
 ! R11   R(6,7)                  1.5651         calculate D2E/DX2 analytically  !
 ! R12   R(6,18)                 1.4457         calculate D2E/DX2 analytically  !
 ! R13   R(6,19)                 1.5377         calculate D2E/DX2 analytically  !
 ! R14   R(7,8)                  1.4762         calculate D2E/DX2 analytically  !
 ! R15   R(7,24)                 1.0985         calculate D2E/DX2 analytically  !
 ! R16   R(7,25)                 1.0965         calculate D2E/DX2 analytically  !
 ! R17   R(8,9)                  1.4751         calculate D2E/DX2 analytically  !
 ! R18   R(8,14)                 1.4921         calculate D2E/DX2 analytically  !
 ! R19   R(9,10)                 1.5364         calculate D2E/DX2 analytically  !
 ! R20   R(9,26)                 1.0965         calculate D2E/DX2 analytically  !
 ! R21   R(9,27)                 1.0974         calculate D2E/DX2 analytically  !
 ! R22   R(10,11)                1.5058         calculate D2E/DX2 analytically  !
 ! R23   R(10,28)                1.0973         calculate D2E/DX2 analytically  !
 ! R24   R(10,29)                1.0964         calculate D2E/DX2 analytically  !
 ! R25   R(11,12)                1.5078         calculate D2E/DX2 analytically  !
 ! R26   R(11,13)                1.509          calculate D2E/DX2 analytically  !
 ! R27   R(11,30)                1.0872         calculate D2E/DX2 analytically  !
 ! R28   R(12,13)                1.5052         calculate D2E/DX2 analytically  !
 ! R29   R(12,31)                1.085          calculate D2E/DX2 analytically  !
 ! R30   R(12,32)                1.0835         calculate D2E/DX2 analytically  !
 ! R31   R(13,33)                1.0854         calculate D2E/DX2 analytically  !
 ! R32   R(13,34)                1.0826         calculate D2E/DX2 analytically  !
 ! R33   R(14,15)                1.5428         calculate D2E/DX2 analytically  !
 ! R34   R(14,35)                1.0965         calculate D2E/DX2 analytically  !
 ! R35   R(14,36)                1.097          calculate D2E/DX2 analytically  !
 ! R36   R(15,16)                1.3546         calculate D2E/DX2 analytically  !
 ! R37   R(15,17)                1.3568         calculate D2E/DX2 analytically  !
 ! R38   R(15,18)                1.4187         calculate D2E/DX2 analytically  !
 ! R39   R(19,37)                1.0964         calculate D2E/DX2 analytically  !
 ! R40   R(19,38)                1.096          calculate D2E/DX2 analytically  !
 ! A1    A(1,2,3)              118.9366         calculate D2E/DX2 analytically  !
 ! A2    A(1,2,19)             121.7986         calculate D2E/DX2 analytically  !
 ! A3    A(3,2,19)             119.1225         calculate D2E/DX2 analytically  !
 ! A4    A(2,3,4)              120.4727         calculate D2E/DX2 analytically  !
 ! A5    A(2,3,20)             116.7235         calculate D2E/DX2 analytically  !
 ! A6    A(4,3,20)             122.7815         calculate D2E/DX2 analytically  !
 ! A7    A(3,4,5)              123.7167         calculate D2E/DX2 analytically  !
 ! A8    A(3,4,21)             119.1024         calculate D2E/DX2 analytically  !
 ! A9    A(5,4,21)             117.1755         calculate D2E/DX2 analytically  !
 ! A10   A(4,5,6)              113.6553         calculate D2E/DX2 analytically  !
 ! A11   A(4,5,22)             107.8103         calculate D2E/DX2 analytically  !
 ! A12   A(4,5,23)             107.7916         calculate D2E/DX2 analytically  !
 ! A13   A(6,5,22)             108.9921         calculate D2E/DX2 analytically  !
 ! A14   A(6,5,23)             110.8879         calculate D2E/DX2 analytically  !
 ! A15   A(22,5,23)            107.4828         calculate D2E/DX2 analytically  !
 ! A16   A(5,6,7)              108.0445         calculate D2E/DX2 analytically  !
 ! A17   A(5,6,18)             106.8767         calculate D2E/DX2 analytically  !
 ! A18   A(5,6,19)             110.686          calculate D2E/DX2 analytically  !
 ! A19   A(7,6,18)             112.9866         calculate D2E/DX2 analytically  !
 ! A20   A(7,6,19)             110.4278         calculate D2E/DX2 analytically  !
 ! A21   A(18,6,19)            107.7775         calculate D2E/DX2 analytically  !
 ! A22   A(6,7,8)              112.811          calculate D2E/DX2 analytically  !
 ! A23   A(6,7,24)             109.174          calculate D2E/DX2 analytically  !
 ! A24   A(6,7,25)             108.4358         calculate D2E/DX2 analytically  !
 ! A25   A(8,7,24)             109.7592         calculate D2E/DX2 analytically  !
 ! A26   A(8,7,25)             109.3693         calculate D2E/DX2 analytically  !
 ! A27   A(24,7,25)            107.1229         calculate D2E/DX2 analytically  !
 ! A28   A(7,8,9)              112.8711         calculate D2E/DX2 analytically  !
 ! A29   A(7,8,14)             109.5208         calculate D2E/DX2 analytically  !
 ! A30   A(9,8,14)             110.9262         calculate D2E/DX2 analytically  !
 ! A31   A(8,9,10)             113.5053         calculate D2E/DX2 analytically  !
 ! A32   A(8,9,26)             107.975          calculate D2E/DX2 analytically  !
 ! A33   A(8,9,27)             110.1352         calculate D2E/DX2 analytically  !
 ! A34   A(10,9,26)            108.0775         calculate D2E/DX2 analytically  !
 ! A35   A(10,9,27)            109.894          calculate D2E/DX2 analytically  !
 ! A36   A(26,9,27)            107.0085         calculate D2E/DX2 analytically  !
 ! A37   A(9,10,11)            116.2866         calculate D2E/DX2 analytically  !
 ! A38   A(9,10,28)            109.4913         calculate D2E/DX2 analytically  !
 ! A39   A(9,10,29)            109.2633         calculate D2E/DX2 analytically  !
 ! A40   A(11,10,28)           107.899          calculate D2E/DX2 analytically  !
 ! A41   A(11,10,29)           106.8052         calculate D2E/DX2 analytically  !
 ! A42   A(28,10,29)           106.6592         calculate D2E/DX2 analytically  !
 ! A43   A(10,11,12)           121.4913         calculate D2E/DX2 analytically  !
 ! A44   A(10,11,13)           124.1541         calculate D2E/DX2 analytically  !
 ! A45   A(10,11,30)           110.1744         calculate D2E/DX2 analytically  !
 ! A46   A(12,11,30)           115.9465         calculate D2E/DX2 analytically  !
 ! A47   A(13,11,30)           117.1059         calculate D2E/DX2 analytically  !
 ! A48   A(11,12,31)           117.78           calculate D2E/DX2 analytically  !
 ! A49   A(11,12,32)           119.3913         calculate D2E/DX2 analytically  !
 ! A50   A(13,12,31)           117.8432         calculate D2E/DX2 analytically  !
 ! A51   A(13,12,32)           118.2632         calculate D2E/DX2 analytically  !
 ! A52   A(31,12,32)           113.5224         calculate D2E/DX2 analytically  !
 ! A53   A(11,13,33)           117.6511         calculate D2E/DX2 analytically  !
 ! A54   A(11,13,34)           120.5445         calculate D2E/DX2 analytically  !
 ! A55   A(12,13,33)           117.6958         calculate D2E/DX2 analytically  !
 ! A56   A(12,13,34)           117.6688         calculate D2E/DX2 analytically  !
 ! A57   A(33,13,34)           113.3377         calculate D2E/DX2 analytically  !
 ! A58   A(8,14,15)            115.8447         calculate D2E/DX2 analytically  !
 ! A59   A(8,14,35)            106.532          calculate D2E/DX2 analytically  !
 ! A60   A(8,14,36)            111.6607         calculate D2E/DX2 analytically  !
 ! A61   A(15,14,35)           108.0891         calculate D2E/DX2 analytically  !
 ! A62   A(15,14,36)           108.1623         calculate D2E/DX2 analytically  !
 ! A63   A(35,14,36)           106.0496         calculate D2E/DX2 analytically  !
 ! A64   A(14,15,16)           110.0205         calculate D2E/DX2 analytically  !
 ! A65   A(14,15,17)           110.6016         calculate D2E/DX2 analytically  !
 ! A66   A(14,15,18)           114.2408         calculate D2E/DX2 analytically  !
 ! A67   A(16,15,17)           106.7486         calculate D2E/DX2 analytically  !
 ! A68   A(16,15,18)           107.4284         calculate D2E/DX2 analytically  !
 ! A69   A(17,15,18)           107.4747         calculate D2E/DX2 analytically  !
 ! A70   A(6,18,15)            114.4448         calculate D2E/DX2 analytically  !
 ! A71   A(2,19,6)             112.816          calculate D2E/DX2 analytically  !
 ! A72   A(2,19,37)            107.2252         calculate D2E/DX2 analytically  !
 ! A73   A(2,19,38)            106.6228         calculate D2E/DX2 analytically  !
 ! A74   A(6,19,37)            111.0453         calculate D2E/DX2 analytically  !
 ! A75   A(6,19,38)            110.2587         calculate D2E/DX2 analytically  !
 ! A76   A(37,19,38)           108.6747         calculate D2E/DX2 analytically  !
 ! D1    D(1,2,3,4)           -177.6817         calculate D2E/DX2 analytically  !
[...]
 50551,-0.00000571,0.00042482,-0.00031358,-0.00008807,-0.00018507,0.000
 03214,0.00005918,-0.00155187,0.00172840,0.00421410,0.00092039,-0.00061
 378,-0.00253880,0.00093486,0.00078544,0.00185965,-0.00569044,-0.017689
 23,-0.01003423,0.07845034,-0.00002896,-0.00000515,0.00003458,0.0000396
 3,0.00001222,-0.00002634,-0.00000708,-0.00000154,0.00000703,0.00001404
 ,0.00000854,-0.00000884,-0.00002149,-0.00002026,0.00000709,0.00002719,
 0.00001429,-0.00002203,0.00007253,-0.00017896,0.00003039,-0.00055029,0
 .00041265,0.00061787,-0.00020016,-0.00016736,-0.00116574,-0.00158792,0
 .00076630,0.00136400,-0.00730618,-0.01424183,-0.00401221,0.00529670,0.
 00729120,0.00199090,-0.09106915,-0.27449195,-0.09692788,0.00009583,0.0
 0018310,-0.00004839,0.00012242,0.00005880,-0.00005891,-0.00003468,-0.0
 0005074,0.00000681,-0.00004699,-0.00002021,0.00005077,-0.00004823,0.00
 002162,0.00001413,-0.00002571,-0.00001895,-0.00000602,-0.00000372,-0.0
 0000171,0.00000052,-0.00000814,-0.00000034,-0.00000121,0.00000322,0.00
 000358,0.00000351,0.00000039,0.00000057,-0.00000226,0.00001697,0.00001
 558,-0.00000434,-0.00001091,0.00004225,0.00000690,0.00005952,-0.000020
 25,-0.00003668,-0.00018740,0.00050814,0.00105616,-0.00009070,0.0002030
 9,0.00002972,0.00016162,-0.00004007,-0.00002670,0.00106321,-0.00042039
 ,-0.00320806,-0.00000874,0.00081642,0.00201740,0.00033809,0.00033391,-
 0.00107611,-0.00253017,-0.00879365,-0.00434260,0.09644510,0.28779836,-
 0.00001325,0.00000124,0.00001037,0.00002240,0.00000366,-0.00000735,-0.
 00000372,0.00000026,-0.00000063,0.00000127,0.00000641,-0.00000911,-0.0
 0002428,-0.00001352,0.00001417,-0.00000533,0.00001567,-0.00004637,0.00
 000354,-0.00016332,0.00015054,-0.00030084,0.00034067,-0.00005728,0.000
 30351,-0.00070094,0.00018234,0.00015228,-0.00114887,0.00069105,0.00003
 828,0.00113015,-0.00544095,-0.00915774,-0.02598788,-0.01064753,-0.0270
 4569,-0.09407777,-0.08152482,0.00005467,0.00003237,-0.00004432,0.00010
 145,0.00001005,0.00011752,-0.00002919,-0.00001263,-0.00002038,-0.00000
 929,0.00000566,-0.00005499,-0.00004769,0.00004328,-0.00002127,-0.00000
 412,-0.00000747,-0.00000055,-0.00000185,-0.00000096,-0.00000031,-0.000
 00684,-0.00000041,-0.00000016,-0.00000115,-0.00000185,-0.00000033,-0.0
 0000102,0.00000383,0.00000098,0.00000536,0.00000275,-0.00003999,-0.000
 01932,0.00004919,-0.00000120,0.00006770,0.00020617,-0.00054763,-0.0001
 3180,-0.00004150,0.00044750,-0.00003217,0.00009614,0.00002585,0.000432
 91,0.00013201,0.00004552,-0.00109754,0.00092916,0.00018669,0.00262290,
 -0.00221799,-0.00368687,-0.00168031,0.00154815,0.00254348,0.00431695,0
 .01602316,0.00858033,0.03148627,0.10376219,0.08915051,0.00010505,-0.00
 002979,-0.00002756,-0.00019009,-0.00000951,0.00002889,0.00006527,0.000
 02303,-0.00000299,0.00000994,0.00000151,0.00000880,0.00003100,0.000110
 79,-0.00000741,-0.00014901,-0.00057957,-0.00040946,-0.00118161,0.00049
 052,0.00027901,0.00113247,-0.00956951,0.00410948,0.00058681,-0.0014731
 4,-0.00004074,-0.00026844,0.00008345,-0.00015343,0.00004265,-0.0000753
 8,-0.00000501,-0.00003097,-0.00004154,-0.00001067,0.00002336,0.0000109
 5,0.00001837,-0.07713249,-0.01365618,0.07124339,0.00857810,0.00627938,
 -0.02351351,0.00031502,0.00099935,0.00139980,-0.00220595,-0.00164303,-
 0.00763669,0.00024575,-0.00000265,0.00175186,-0.00007729,0.00041958,-0
 .00006608,0.00001962,-0.00000133,0.00001636,0.00001383,-0.00000473,0.0
 0000596,0.00002047,-0.00004464,0.00004035,-0.00002669,0.00002810,-0.00
 001075,0.00017412,-0.00030808,0.00059536,0.00000094,0.00001630,0.00009
 390,-0.00019591,0.00004184,-0.00001658,0.00032474,0.00057284,-0.000164
 69,-0.00002058,-0.00010913,-0.00001127,0.00002179,0.00002193,0.0000020
 0,-0.00006022,-0.00001479,-0.00000447,-0.00001811,0.00000323,-0.000011
 07,0.00000112,0.00001087,0.00000876,-0.00002002,-0.00000730,-0.0000100
 0,0.00002419,-0.00000751,-0.00001168,0.07773189,-0.00009695,0.00005618
 ,-0.00004960,0.00029184,0.00009195,-0.00011493,-0.00009216,-0.00001464
 ,-0.00005608,-0.00006726,-0.00001382,0.00009922,0.00020599,-0.00002387
 ,-0.00014716,-0.00039600,-0.00051729,0.00025781,-0.00276517,-0.0015342
 5,0.00107415,-0.01485574,-0.02890182,0.02398784,0.00173659,-0.00287341
 ,0.00217866,-0.00070821,0.00039058,0.00032459,0.00003408,-0.00018907,-
 0.00009640,-0.00004226,-0.00004761,-0.00003317,0.00002814,-0.00004485,
 0.00000172,-0.01434797,-0.05363920,0.05739906,0.00374759,0.00178797,-0
 .00455511,0.00015352,0.00018233,-0.00041961,-0.00172523,0.00031876,-0.
 00246942,-0.00019061,0.00040424,0.00026576,0.00016022,-0.00028696,0.00
 046370,-0.00002525,-0.00000277,-0.00004199,0.00003017,0.00000291,-0.00
 001561,-0.00003605,-0.00000424,-0.00004028,-0.00000267,0.00007123,0.00
 000358,0.00051539,-0.00023249,0.00072424,0.00020984,-0.00022182,0.0001
 9746,-0.00015870,0.00043723,-0.00031040,-0.00070225,0.00001883,0.00054
 683,0.00005287,0.00000376,-0.00006470,0.00004904,0.00007184,0.00001975
 ,-0.00011636,-0.00003476,-0.00000103,-0.00003619,0.00000965,-0.0000089
 9,0.00001266,0.00000303,0.00001079,-0.00003108,-0.00000500,-0.00000392
 ,0.00004281,-0.00002288,-0.00000620,0.02386882,0.07941103,0.00003900,-
 0.00007480,0.00006738,-0.00018884,-0.00001962,-0.00006695,0.00003420,0
 .00001410,0.00007381,0.00006591,0.00003509,-0.00006037,-0.00010681,-0.
 00005481,0.00005488,0.00001232,0.00035397,-0.00048096,0.00076846,-0.00
 050917,0.00053105,-0.00013057,0.00317099,0.00921738,-0.00067966,0.0000
 3698,0.00028958,0.00000666,-0.00010812,-0.00005771,-0.00002800,0.00001
 315,-0.00003402,0.00001221,0.00001285,0.00001010,-0.00000680,-0.000004
 68,-0.00000903,0.06641459,0.05525693,-0.27312914,0.01163887,0.00658360
 ,-0.02189707,-0.00055201,-0.00085566,0.00279539,-0.00383958,-0.0010442
 8,-0.00476117,-0.00046386,-0.00050304,0.00226946,-0.00017695,-0.000074
 67,-0.00036841,0.00000572,0.00000317,0.00001827,-0.00001483,-0.0000047
 8,0.00000879,0.00004056,-0.00002923,0.00004726,0.00001832,-0.00002228,
 0.00001084,-0.00000779,-0.00032269,0.00009780,-0.00006127,0.00008922,-
 0.00001127,0.00002893,0.00020125,-0.00025370,-0.00006972,-0.00011660,-
 0.00013604,-0.00001588,-0.00000682,-0.00001525,-0.00000222,0.00002637,
 -0.00000059,0.00003176,0.00000668,0.00000248,0.00001177,0.00000157,0.0
 0000478,-0.00000709,0.00000114,-0.00000226,0.00001271,0.00000194,0.000
 00182,-0.00000994,0.00001248,0.00000113,-0.07562602,-0.06296446,0.2911
 1923,-0.00010794,-0.00002379,0.00010972,0.00021252,0.00001832,-0.00015
 173,-0.00001114,0.00001225,-0.00000456,0.00008131,0.00001139,0.0000300
 5,0.00010606,0.00012001,0.00004600,0.00018168,-0.00218034,-0.00004542,
 -0.00058293,-0.00090831,0.00023825,0.00873337,-0.00447059,-0.00176797,
 -0.00038963,-0.00389167,-0.00117537,0.00021721,-0.00007101,-0.00005383
 ,-0.00002050,0.00003019,0.00004906,0.00001015,0.00000874,0.00000359,-0
 .00000671,0.00001124,-0.00000859,-0.22640486,0.11316372,0.04368497,-0.
 01929564,0.01553002,0.01038613,0.00183334,-0.00135201,-0.00047314,0.00
 268246,-0.00113087,0.00043043,-0.00460920,0.00017584,-0.00399583,0.000
 07380,0.00007760,0.00005620,-0.00001685,0.00000376,-0.00000076,-0.0000
 2753,-0.00000552,-0.00001053,-0.00002553,-0.00002782,0.00001334,-0.000
 06594,0.00011538,-0.00004569,0.00000850,0.00010693,-0.00003507,0.00025
 829,-0.00026801,0.00025927,0.00032463,-0.00121925,0.00002436,0.0007616
 9,0.00058014,-0.00004096,-0.00004873,-0.00003893,0.00001907,0.00002255
 ,-0.00008825,-0.00000418,0.00001720,0.00001216,0.00000014,0.00000632,0
 .00000102,-0.00000034,-0.00000787,-0.00000038,-0.00000926,0.00000896,0
 .00001008,0.00000322,-0.00000705,0.00001340,0.00001368,-0.00771199,0.0
 0484932,0.00258199,0.24386213,0.00006565,0.00004244,-0.00007644,-0.000
 05671,-0.00003018,0.00000067,0.00002306,0.00000925,-0.00002397,-0.0000
 0741,-0.00001087,0.00008539,0.00018238,0.00020778,-0.00005975,-0.00054
 493,-0.00142440,0.00009439,-0.00234319,-0.00338258,-0.00482588,0.02148
 033,-0.02462273,-0.00426338,0.00474284,0.00027902,0.00052650,-0.000342
 41,0.00027726,-0.00000617,-0.00007321,0.00004744,0.00002899,-0.0000109
 9,-0.00004641,0.00001030,-0.00002089,-0.00007697,-0.00002202,0.1097282
 9,-0.12074583,-0.02979069,-0.00455157,0.00412698,0.00287831,0.00020494
 ,0.00065859,0.00018758,-0.00023855,0.00005583,0.00057752,-0.00290490,0
 .00151789,-0.00159911,0.00008025,0.00008177,0.00015015,0.00000590,-0.0
 0000392,-0.00000841,0.00003812,-0.00000628,-0.00000458,0.00000681,-0.0
 0000819,0.00002924,-0.00008271,0.00010769,-0.00005561,-0.00005583,0.00
 011748,0.00044906,0.00121634,-0.00106167,0.00127400,-0.00107147,-0.000
 11078,-0.00072830,-0.00070642,-0.00011547,0.00109968,0.00009094,0.0002
 3443,0.00011872,0.00008960,0.00032046,-0.00005301,0.00002543,0.0000058
 8,-0.00000301,0.00000129,0.00002373,-0.00000699,-0.00001018,0.00000645
 ,-0.00003472,0.00000065,0.00002766,0.00000461,-0.00000375,-0.00000077,
 0.00003410,-0.00561139,0.00540879,0.00086298,-0.11921711,0.13803552,0.
 00005753,-0.00003616,0.00003190,-0.00016017,-0.00006502,-0.00001593,0.
 00006865,0.00004116,0.00002047,0.00006716,0.00001198,-0.00000451,0.000
 03572,0.00010805,0.00009528,0.00016186,-0.00158370,-0.00042511,-0.0001
 7543,0.00079517,-0.00086304,-0.00333126,0.00026873,0.00024138,0.000344
 46,-0.00002826,0.00310727,-0.00013166,0.00022883,-0.00015324,0.0000238
 7,-0.00001956,0.00004582,-0.00002986,-0.00004249,0.00000826,0.00001282
 ,0.00000790,0.00000519,0.04882720,-0.03145088,-0.06397001,-0.01937207,
 0.01329611,0.00550671,0.00179774,0.00065852,-0.00003883,0.00113321,-0.
 00039367,0.00163075,-0.00597614,0.00080674,-0.00211730,-0.00004661,0.0
 0019280,-0.00031083,0.00001324,0.00000157,0.00002192,-0.00001090,-0.00
 001101,0.00000466,-0.00000403,-0.00003313,0.00004381,-0.00003311,0.000
 05897,-0.00002980,-0.00000296,0.00005937,0.00000632,0.00000571,0.00011
 585,-0.00003630,-0.00037916,-0.00029164,-0.00021626,-0.00059236,-0.000
 20511,-0.00019976,0.00005011,-0.00003983,-0.00003535,0.00001547,0.0000
 6170,0.00002476,-0.00002519,-0.00000430,-0.00001261,-0.00000324,0.0000
 1016,-0.00002146,-0.00000609,0.00000475,-0.00001865,-0.00001110,-0.000
 00408,-0.00001164,0.00002667,-0.00002789,0.00001179,0.02782297,-0.0156
 6172,-0.00583443,-0.05011729,0.03317324,0.06316148,-0.00042471,0.00385
 631,0.00061034,-0.00931368,-0.03438016,-0.00778082,-0.00154148,0.00330
 814,0.00031646,-0.00049148,-0.00043258,0.00010803,-0.00002183,-0.00004
 129,-0.00015828,0.00177816,0.00971666,0.00052801,-0.00017719,0.0005729
 3,0.00048872,0.00014962,-0.00026461,-0.00015190,-0.00006844,-0.0000350
 6,-0.00001291,-0.00002344,0.00003232,0.00006818,-0.00000676,-0.0000439
 1,-0.00001603,0.00000092,0.00000767,0.00000352,0.00000977,0.00001313,-
 0.00001083,0.00006316,0.00038433,-0.00014106,0.00141508,-0.00052409,-0
 .00011501,-0.00015748,0.00021702,-0.00006000,-0.00039809,-0.00001182,0
 .00031215,-0.00052177,0.00290340,0.00368492,-0.06008071,-0.06629249,-0
 .01852025,-0.00027477,0.00073248,-0.00009246,0.00005380,-0.00042851,-0
 .00018415,0.00000155,0.00007094,-0.00003090,0.00026031,0.00002029,-0.0
 0007750,0.00015196,-0.00001782,-0.00017475,-0.00038498,-0.00001772,0.0
 0062549,0.00001349,-0.00000930,0.00001062,0.00004090,0.00000046,-0.000
 02946,-0.00001924,-0.00001821,-0.00005321,-0.00000860,-0.00001571,0.00
 001800,0.00000268,0.00000174,0.00000155,0.00000604,-0.00000175,0.00000
 093,-0.00000302,0.00000302,0.00000269,0.00000963,-0.00000412,-0.000002
 25,-0.00000243,-0.00000030,-0.00000217,-0.00004081,-0.00008112,0.00011
 550,-0.00004906,-0.00008243,0.00003002,0.06597407,-0.00035759,0.001403
 80,-0.00012351,-0.00201415,-0.00276200,-0.00012196,-0.00029332,-0.0005
 3714,0.00082269,0.00007330,0.00021516,0.00008277,0.00041886,-0.0001402
 8,-0.00008398,-0.00095389,-0.00553013,0.00109952,-0.00089225,-0.000251
 95,0.00038802,0.00007189,0.00026827,0.00035475,0.00001752,0.00001959,0
 .00002949,0.00003307,-0.00003774,-0.00006806,-0.00000049,0.00003726,0.
 00001007,0.00000186,-0.00000422,0.00000091,-0.00001017,-0.00001154,0.0
 0000834,-0.00006137,-0.00035863,0.00010974,-0.00171703,0.00099597,0.00
 022083,0.00016715,-0.00017559,0.00002295,0.00052518,-0.00008437,-0.000
 45650,0.00110659,-0.00056812,-0.00256205,-0.05798621,-0.27591800,-0.06
 559902,-0.00008296,0.00004068,-0.00007584,-0.00000410,0.00003130,0.000
 00560,-0.00002590,0.00005246,-0.00008237,0.00001302,0.00020959,-0.0001
 5731,0.00000476,0.00036329,0.00003911,0.00025287,0.00080210,0.00007504
 ,-0.00000559,-0.00000101,-0.00001376,-0.00003442,0.00000230,0.00002496
 ,0.00001595,0.00002402,0.00004546,0.00000454,0.00001502,-0.00000730,0.
 00000427,0.00000210,-0.00000227,-0.00000052,0.00000195,-0.00000079,0.0
 0000139,-0.00000369,-0.00000479,-0.00000531,0.00000436,0.00000271,-0.0
 0000027,0.00000323,0.00000395,-0.00001790,0.00012434,-0.00012908,0.000
 06751,0.00008277,-0.00003159,0.06729126,0.29877262,0.00142372,-0.00136
 828,-0.00059849,-0.00050153,0.00393932,-0.00027733,-0.00021995,0.00036
 405,0.00010066,-0.00018802,-0.00003974,-0.00004248,-0.00033510,0.00044
 701,0.00049116,-0.00850399,-0.02600176,-0.00326986,-0.00030216,-0.0010
 6853,0.00123100,0.00013971,0.00016858,-0.00029351,0.00005883,0.0000286
 2,0.00002102,0.00001711,-0.00002422,0.00007048,0.00000159,0.00001696,-
 0.00001355,-0.00001066,-0.00000682,-0.00000499,0.00000298,-0.00000434,
 -0.00000307,-0.00009195,-0.00010520,-0.00017271,-0.00283478,0.00094550
 ,-0.00078077,0.00029430,-0.00053913,0.00019286,0.00092875,-0.00006175,
 -0.00065342,0.00375672,-0.00556452,-0.00503959,-0.01642766,-0.06375557
 ,-0.06512592,-0.00003265,0.00000255,-0.00005732,-0.00001261,-0.0000584
 6,0.00002376,0.00020712,0.00020375,0.00015475,-0.00010979,0.00036619,-
 0.00049744,-0.00037857,0.00029640,0.00011635,0.00067101,0.00054747,-0.
 00020752,-0.00001889,0.00001204,-0.00000948,-0.00000346,-0.00001322,0.
 00000151,0.00000494,-0.00000518,-0.00000216,0.00000328,0.00003150,-0.0
 0003665,0.00000075,0.00000079,0.00000387,-0.00000603,0.00000250,-0.000
 00023,-0.00000006,0.00000408,-0.00000063,-0.00000016,0.00000045,-0.000
 00082,0.00000180,-0.00000181,0.00000063,0.00005101,-0.00001959,0.00009
 141,0.00007320,0.00006831,0.00011682,0.01576781,0.07227142,0.06769059,
 0.00499035,-0.00243407,0.00055535,-0.01978739,0.02374960,-0.02508595,-
 0.00481051,-0.00185981,0.00210723,-0.00021335,0.00001267,0.00064821,-0
 .00054233,0.00090347,0.00192167,0.00567682,-0.00809280,0.00660135,0.00
 069107,-0.00070696,0.00007745,-0.00058994,0.00035643,-0.00007045,-0.00
 023199,-0.00005055,-0.00002795,0.00002176,-0.00003749,0.00003218,-0.00
 001470,0.00000466,-0.00000965,-0.00000178,-0.00000161,0.00000515,0.000
 00581,0.00000303,-0.00000929,-0.00062186,0.00044753,0.00066574,0.00095
 074,-0.00008866,-0.00009072,-0.00018701,-0.00004439,-0.00001997,-0.000
 19223,0.00001452,-0.00003342,-0.00021604,-0.00062668,-0.00046861,-0.09
 496259,0.07490366,-0.07000496,-0.00077806,-0.00022753,-0.00134883,0.00
 012089,0.00022461,-0.00005498,0.00045954,-0.00025961,0.00058233,0.0000
 3184,0.00000368,-0.00012295,-0.00003113,0.00016634,-0.00012936,-0.0001
 5165,0.00006006,0.00008779,-0.00000531,0.00000971,-0.00000203,0.000103
 83,-0.00001209,-0.00007088,-0.00001175,-0.00002155,-0.00001333,-0.0000
 0387,0.00001564,-0.00001873,0.00001555,0.00000716,0.00000016,0.0000056
 2,0.00000300,-0.00000002,-0.00000605,0.00000514,-0.00000276,0.00000911
 ,0.00000191,-0.00000096,-0.00000678,0.00000457,0.00000383,-0.00013794,
 0.00048834,0.00014837,-0.00001306,-0.00004675,-0.00008581,0.00407885,-
 0.00560753,0.00657340,0.10635555,0.00010314,0.00023071,-0.00125932,-0.
 00423722,0.00230300,-0.00186586,-0.00084186,0.00013720,0.00034167,0.00
 030648,0.00002804,-0.00018920,0.00012741,0.00019993,-0.00178780,-0.003
 46928,0.00293706,-0.00552777,-0.00005371,-0.00029802,0.00097334,0.0005
 6471,-0.00055827,-0.00076608,-0.00020481,-0.00014756,-0.00019106,-0.00
 001549,-0.00001256,0.00008108,-0.00001249,-0.00001703,-0.00001362,-0.0
 0000385,-0.00000090,0.00000119,0.00001057,0.00000506,-0.00001063,0.000
 59137,0.00084230,-0.00037980,0.00052478,0.00000097,-0.00027275,-0.0001
 5471,-0.00001188,-0.00000759,-0.00007285,-0.00000061,0.00018691,-0.000
 90692,0.00162282,-0.00015096,0.07542908,-0.15761700,0.10966085,-0.0001
 3576,0.00004051,-0.00012007,0.00000790,-0.00009981,-0.00000540,-0.0001
 5050,0.00042229,-0.00034052,0.00000467,0.00007263,-0.00023381,-0.00008
 777,0.00011359,-0.00005742,0.00002709,0.00018208,0.00010774,-0.0000026
 4,0.00000055,0.00001052,0.00014942,0.00004069,-0.00008198,-0.00000828,
 -0.00002335,-0.00002431,-0.00000084,0.00001433,-0.00002219,0.00000918,
 0.00000467,0.00000217,0.00000241,0.00000182,0.00000083,-0.00000519,0.0
 0000806,0.00000045,0.00000916,0.00000007,-0.00000230,-0.00000584,0.000
 00316,0.00000109,0.00022460,-0.00018391,0.00016034,-0.00002518,-0.0000
 2805,0.00002845,0.01357087,-0.01708777,0.01892061,-0.08126763,0.166875
 20,0.00166903,-0.00028749,0.00061249,-0.00193681,-0.00213578,0.0002587
 7,0.00045359,0.00006513,0.00085253,0.00080994,-0.00007771,0.00004656,0
 .00331379,-0.00290992,-0.00434790,-0.01430517,0.02010796,-0.02127746,-
 0.00116339,-0.00004445,0.00008329,0.00009698,-0.00001036,0.00047111,0.
 00033323,-0.00000507,0.00030575,-0.00006015,0.00005644,0.00000048,0.00
 002386,-0.00002387,0.00000695,-0.00000180,-0.00000090,-0.00000698,0.00
 000091,0.00000458,0.00000782,0.00026764,-0.00004299,-0.00064311,0.0002
 3868,-0.00046162,-0.00130829,0.00010206,-0.00001694,0.00013002,-0.0001
 5584,-0.00000345,0.00056342,-0.00001563,0.00085713,0.00380837,-0.07134
 036,0.10765978,-0.15600509,0.00001049,0.00007264,0.00015188,-0.0001177
 4,0.00007827,0.00004700,-0.00103076,0.00102236,-0.00124138,0.00001731,
 0.00015438,-0.00004089,0.00015584,-0.00009731,0.00006583,0.00002786,-0
 .00006637,0.00000114,0.00004446,0.00001384,0.00000835,-0.00019029,-0.0
 0000857,0.00004571,0.00001165,-0.00000476,0.00000179,0.00000466,-0.000
 03439,0.00001052,-0.00002349,-0.00001106,-0.00000114,-0.00000778,-0.00
 000337,-0.00000101,0.00000472,-0.00000069,0.00000730,-0.00001127,-0.00
 000554,-0.00000230,0.00000970,-0.00000842,-0.00000834,0.00026382,-0.00
 047482,0.00040553,-0.00008215,-0.00009170,0.00023048,0.00492101,-0.006
 09817,0.00678107,0.07766139,-0.11716679,0.16997974\\0.00966197,-0.0001
 9878,-0.00525229,-0.02481956,-0.00019864,0.01218179,0.01017491,0.00017
 394,0.00149356,-0.00447172,-0.00200731,-0.00098836,-0.00364852,-0.0061
 2307,-0.00207861,0.01212061,0.01997107,0.00003472,0.00071214,-0.006060
 35,0.00139196,-0.00749791,-0.00715451,-0.00832821,-0.00126065,0.004831
 53,0.00380219,-0.01126654,-0.00110251,-0.00224227,0.00356987,-0.003908
 51,0.00306883,0.00454971,0.00392180,0.00074213,0.00434718,0.00296795,-
 0.00226952,-0.00079645,0.00187575,0.01002755,-0.01768385,0.01729783,0.
 01312847,-0.00059348,0.00569759,0.00145642,0.00744981,-0.00189819,-0.0
 1003770,0.02427572,-0.01639093,0.00130411,-0.00137822,-0.00992198,-0.0
 0106672,-0.00101091,-0.00024952,0.00111928,0.00060825,0.00112949,-0.00
 212574,0.00403506,0.00137362,0.00087012,0.00406448,0.00109107,-0.00046
 850,-0.00263758,0.00166402,-0.00474686,-0.00208148,-0.00251621,0.00131
 688,-0.00281137,-0.00204411,0.00065756,0.00224054,-0.00016477,-0.00503
 109,-0.00338794,-0.00141004,0.00058773,-0.00271198,-0.00006557,-0.0002
 9810,0.00537112,0.00012946,-0.00153270,0.00106242,0.00036485,0.0012149
 6,-0.00198357,-0.00179325,0.00121422,0.00077004,0.00014777,-0.00113516
 ,-0.00324328,-0.00101841,-0.00138587,-0.00422132,-0.00532755,-0.002604
 20,-0.00149852,0.00157998,-0.00369120,0.00203804,0.00044428,-0.0003987
 2,0.00195297,0.00489220,0.00006934\\\@


 THOSE WHO ASPIRE NOT TO GUESS AND DIVINE,
 BUT TO DISCOVER AND KNOW, WHO PROPOSE NOT TO DEVISE 
 MIMIC AND FABULOUS WORLDS OF THEIR OWN, BUT TO 
 EXAMINE AND DISSECT THE NATURE OF THIS VERY WORLD 
 ITSELF, MUST GO TO THE FACTS THEMSELVES FOR EVERYTHING.

                               -- FRANCIS BACON, 1620
 Job cpu time:       0 days  0 hours 31 minutes 51.7 seconds.
 Elapsed time:       0 days  0 hours  4 minutes  4.4 seconds.
 File lengths (MBytes):  RWF=    474 Int=      0 D2E=      0 Chk=      9 Scr=      1
 Normal termination of Gaussian 16 at Sun Nov 16 14:22:59 2025.
