38
spiro_mol, conf. 0, Energy: -60.170032727877 EH
O           -3.41876  -2.68905  -0.55305
C           -3.33192  -1.49522  -0.28057
C           -4.14690  -0.51550  -1.03527
C           -3.99012   0.79515  -0.81405
C           -2.97213   1.36854   0.12946
C           -1.83603   0.38105   0.51638
C           -0.77298   0.20399  -0.63444
N            0.48915   0.97642  -0.51743
C            1.54536   0.18661   0.15307
C            2.20857  -0.82166  -0.80094
C            3.30762  -1.57987  -0.11066
C            4.41436  -2.20159  -0.92165
C            4.70253  -1.01521  -0.04324
C            0.22157   2.21582   0.25256
C           -0.46471   2.01632   1.62063
F           -1.30064   3.04982   1.88317
F            0.46505   1.99827   2.60697
O           -1.21515   0.81310   1.74193
C           -2.46720  -0.98358   0.84627
H           -4.87251  -0.91439  -1.73448
H           -4.62525   1.50080  -1.34564
H           -2.55250   2.26974  -0.32949
H           -3.49327   1.71107   1.03287
H           -0.54619  -0.85931  -0.77283
H           -1.23320   0.49751  -1.58680
H            2.33785   0.86138   0.50372
H            1.16250  -0.32683   1.04441
H            2.60141  -0.29123  -1.67779
H            1.47843  -1.54943  -1.17045
H            2.94396  -2.14403   0.74187
H            4.79116  -3.16891  -0.60848
H            4.42236  -2.05153  -1.99543
H            4.90623  -0.06622  -0.52645
H            5.27430  -1.18178   0.86285
H            1.14638   2.79124   0.38467
H           -0.41055   2.85893  -0.37185
H           -1.68290  -1.72009   1.06055
H           -3.08589  -0.92035   1.75049
38
spiro_mol, conf. 1, Energy: -60.170180567671 EH
O           -5.20714   2.02454  -0.05521
C           -4.25719   1.28720   0.20132
C           -4.51877  -0.04780   0.78225
C           -3.49841  -0.83854   1.13179
C           -2.05440  -0.49048   0.90621
C           -1.84202   0.57921  -0.19374
C           -0.39744   1.18138  -0.16197
N            0.69962   0.35560  -0.70004
C            1.17760  -0.68074   0.22527
C            2.63090  -1.10465  -0.05717
C            3.61127   0.01227   0.16573
C            4.16869   0.28187   1.53926
C            5.05251  -0.30250   0.47180
C            0.26663  -0.18851  -2.01251
C           -1.15479  -0.78543  -2.06288
F           -1.20696  -1.98559  -1.43952
F           -1.50283  -1.00952  -3.35494
O           -2.15147   0.06432  -1.50682
C           -2.82500   1.74486   0.04155
H           -5.55580  -0.32137   0.93529
H           -3.71053  -1.80044   1.59308
H           -1.54515  -1.42263   0.65891
H           -1.63954  -0.14361   1.86072
H           -0.40204   2.09156  -0.77878
H           -0.14995   1.52877   0.84957
H            0.54670  -1.57344   0.19273
H            1.14261  -0.30277   1.25501
H            2.87333  -1.95115   0.59802
H            2.73670  -1.47228  -1.08373
H            3.41895   0.86182  -0.48151
H            4.33203   1.31536   1.82382
H            3.87378  -0.36165   2.35995
H            5.35121  -1.33976   0.57137
H            5.81331   0.33614   0.03683
H            0.98540  -0.92277  -2.39154
H            0.29962   0.64550  -2.72590
H           -2.80170   2.42604  -0.81849
H           -2.55973   2.30917   0.94357
38
spiro_mol, conf. 2, Energy: -60.165602531234 EH
O            4.97001   1.08139  -1.72695
C            4.26350   0.43393  -0.95669
C            4.78961   0.08526   0.38143
C            4.06715  -0.67655   1.20995
C            2.68279  -1.16451   0.89543
C            1.95768  -0.32285  -0.18819
C            0.66134  -1.10605  -0.61542
N           -0.54796  -0.31580  -0.96138
C           -1.48257  -0.29774   0.18738
C           -2.83735   0.36455  -0.11658
C           -3.78977   0.20688   1.03601
C           -5.27490   0.29099   0.79825
C           -4.64582  -1.02645   1.15973
C           -0.13105   1.05094  -1.35555
C            0.78242   1.77875  -0.34609
F            0.02615   2.49305   0.52473
F            1.58552   2.66007  -0.98598
O            1.61219   0.92728   0.43699
C            2.91350  -0.10595  -1.37894
H            5.78129   0.44581   0.62728
H            4.48539  -0.95394   2.17463
H            2.09879  -1.13147   1.82432
H            2.75744  -2.21499   0.58783
H            0.90260  -1.72165  -1.49208
H            0.40506  -1.84404   0.15679
H           -1.69557  -1.33669   0.47356
H           -1.02703   0.17423   1.06726
H           -2.71092   1.43734  -0.29620
H           -3.26412  -0.07062  -1.02890
H           -3.40979   0.65859   1.94655
H           -5.88149   0.78699   1.54781
H           -5.63500   0.41956  -0.21634
H           -4.58362  -1.78533   0.38780
H           -4.82920  -1.41997   2.15325
H            0.39363   0.96303  -2.31440
H           -0.99441   1.68132  -1.59265
H            2.50598   0.60579  -2.10101
H            3.09850  -1.05114  -1.90362
38
spiro_mol, conf. 3, Energy: -60.165793670553 EH
O            4.07463  -2.70368   0.92177
C            3.74942  -1.53013   0.76733
C            3.73026  -0.62226   1.93733
C            3.27040   0.62742   1.80399
C            2.69770   1.17787   0.52914
C            2.29785   0.09701  -0.51430
C            0.94617  -0.61775  -0.16183
N           -0.28800  -0.00815  -0.69421
C           -1.42799  -0.19916   0.21110
C           -2.78701   0.14484  -0.41880
C           -3.91848  -0.18363   0.51486
C           -4.50703  -1.56990   0.54521
C           -5.29808  -0.43094  -0.03714
C           -0.08830   1.37991  -1.13940
C            1.18168   1.62058  -1.99223
F            0.86478   1.63006  -3.31057
F            1.69372   2.84580  -1.70727
O            2.23325   0.67802  -1.82718
C            3.42596  -0.94870  -0.58754
H            4.12269  -1.01241   2.86909
H            3.30178   1.29614   2.66173
H            3.43272   1.86508   0.09034
H            1.83373   1.79603   0.79122
H            0.96263  -1.63630  -0.57004
H            0.88389  -0.73311   0.92798
H           -1.46256  -1.25388   0.51555
H           -1.28850   0.38523   1.13022
H           -2.84305   1.21487  -0.64731
H           -2.90195  -0.39629  -1.36641
H           -3.85171   0.36216   1.45005
H           -4.82162  -1.96824   1.50332
H           -4.11935  -2.31744  -0.13809
H           -6.14604  -0.06083   0.52828
H           -5.44240  -0.41227  -1.11167
H           -0.94493   1.70864  -1.73812
H           -0.05646   2.04244  -0.26619
H            3.14746  -1.76139  -1.26956
H            4.34273  -0.50562  -0.99713
38
spiro_mol, conf. 4, Energy: -60.164372396614 EH
O            4.44801   0.19716  -2.45830
C            3.94154  -0.04512  -1.36389
C            4.82723  -0.29389  -0.20401
C            4.31030  -0.60568   0.98960
C            2.83713  -0.66666   1.26917
C            1.97754   0.10722   0.24134
C            0.48618  -0.32813   0.43093
N           -0.44445   0.42758  -0.43035
C           -1.86042   0.18989  -0.09162
C           -2.30908  -1.26203  -0.31747
C           -3.77774  -1.54179  -0.13749
C           -4.82603  -0.76365  -0.89190
C           -4.72824  -0.63470   0.60463
C           -0.11723   1.88175  -0.36266
C            0.99997   2.27442   0.62617
F            1.32895   3.57794   0.46048
F            0.57325   2.13862   1.90702
O            2.19084   1.51511   0.49109
C            2.44556  -0.19144  -1.19275
H            5.89407  -0.23716  -0.38464
H            4.98221  -0.81636   1.81820
H            2.66711  -0.24371   2.26752
H            2.54633  -1.72366   1.30527
H            0.20408  -0.19978   1.48475
H            0.40550  -1.39755   0.20299
H           -2.47415   0.83863  -0.72790
H           -2.05452   0.48332   0.94795
H           -2.02686  -1.57922  -1.32925
H           -1.77370  -1.91850   0.37852
H           -3.94805  -2.61242  -0.05427
H           -5.66821  -1.31334  -1.29915
H           -4.52594   0.08107  -1.50036
H           -5.50495  -1.10019   1.20294
H           -4.38587   0.31047   1.00642
H            0.20020   2.17740  -1.36981
H           -1.00378   2.48621  -0.13453
H            2.18362  -1.21436  -1.48743
H            1.97960   0.50699  -1.89722
